
     Program PWSCF v.5.0.2 (svn rev. 9656) starts on 12Jul2015 at  2:24:33 

     This program is part of the open-source Quantum ESPRESSO suite
     for quantum simulation of materials; please cite
         "P. Giannozzi et al., J. Phys.:Condens. Matter 21 395502 (2009);
          URL http://www.quantum-espresso.org", 
     in publications or presentations arising from this work. More details at
     http://www.quantum-espresso.org/quote.php

     Parallel version (MPI), running on     4 processors
     R & G space division:  proc/nbgrp/npool/nimage =       4

     Current dimensions of program PWSCF are:
     Max number of different atomic species (ntypx) = 10
     Max number of k-points (npk) =  40000
     Max angular momentum in pseudopotentials (lmaxx) =  3
     Waiting for input...
     Reading input from standard input
               file Al.pbe-n-kjpaw_psl.0.1.UPF: wavefunction(s)  3S renormalized

     Subspace diagonalization in iterative solution of the eigenvalue problem:
     a serial algorithm will be used


     Parallelization info
     --------------------
     sticks:   dense  smooth     PW     G-vecs:    dense   smooth      PW
     Min         180     180     55                 3168     3168     556
     Max         181     181     56                 3171     3171     558
     Sum         721     721    223                12675    12675    2229



     bravais-lattice index     =            2
     lattice parameter (alat)  =       7.6300  a.u.
     unit-cell volume          =     111.0487 (a.u.)^3
     number of atoms/cell      =            1
     number of atomic types    =            1
     number of electrons       =         3.00
     number of Kohn-Sham states=            6
     kinetic-energy cutoff     =      90.0000  Ry
     charge density cutoff     =     360.0000  Ry
     convergence threshold     =      1.0E-07
     mixing beta               =       0.7000
     number of iterations used =            8  plain     mixing
     Exchange-correlation      =  SLA  PW   PBX  PBC ( 1 4 3 4 0)
     EXX-fraction              =        0.00

     celldm(1)=   7.630000  celldm(2)=   0.000000  celldm(3)=   0.000000
     celldm(4)=   0.000000  celldm(5)=   0.000000  celldm(6)=   0.000000

     crystal axes: (cart. coord. in units of alat)
               a(1) = (  -0.500000   0.000000   0.500000 )  
               a(2) = (   0.000000   0.500000   0.500000 )  
               a(3) = (  -0.500000   0.500000   0.000000 )  

     reciprocal axes: (cart. coord. in units 2 pi/alat)
               b(1) = ( -1.000000 -1.000000  1.000000 )  
               b(2) = (  1.000000  1.000000  1.000000 )  
               b(3) = ( -1.000000  1.000000 -1.000000 )  


     PseudoPot. # 1 for Al read from file:
     ./Al.pbe-n-kjpaw_psl.0.1.UPF
     MD5 check sum: 023d9faf819c76fc4df1f064efe7b7b2
     Pseudo is Projector augmented-wave + core cor, Zval =  3.0
     Generated using "atomic" code by A. Dal Corso  v.5.0.2 svn rev. 9415
     Shape of augmentation charge: PSQ
     Using radial grid of 1135 points,  4 beta functions with: 
                l(1) =   0
                l(2) =   0
                l(3) =   1
                l(4) =   1
     Q(r) pseudized with 0 coefficients 


     atomic species   valence    mass     pseudopotential
        Al             3.00    26.98154     Al( 1.00)

     48 Sym. Ops., with inversion, found



   Cartesian axes

     site n.     atom                  positions (alat units)
         1           Al  tau(   1) = (   0.0000000   0.0000000   0.0000000  )

     number of k points=   104  gaussian smearing, width (Ry)=  0.0030

     Number of k-points >= 100: set verbosity='high' to print them.

     Dense  grid:    12675 G-vectors     FFT dimensions: (  36,  36,  36)

     Largest allocated arrays     est. size (Mb)     dimensions
        Kohn-Sham Wavefunctions         0.04 Mb     (    410,    6)
        NL pseudopotentials             0.05 Mb     (    410,    8)
        Each V/rho on FFT grid          0.18 Mb     (  11664)
        Each G-vector array             0.02 Mb     (   3171)
        G-vector shells                 0.00 Mb     (    176)
     Largest temporary arrays     est. size (Mb)     dimensions
        Auxiliary wavefunctions         0.15 Mb     (    410,   24)
        Each subspace H/S matrix        0.01 Mb     (  24,  24)
        Each <psi_i|beta_j> matrix      0.00 Mb     (      8,    6)
        Arrays for rho mixing           1.42 Mb     (  11664,   8)

     Check: negative/imaginary core charge=   -0.000001    0.000000

     Initial potential from superposition of free atoms

     starting charge    2.99771, renormalised to    3.00000
     Starting wfc are    4 randomized atomic wfcs
     Checking if some PAW data can be deallocated... 

     total cpu time spent up to now is        3.6 secs

     per-process dynamical memory:     9.9 Mb

     Self-consistent Calculation

     iteration #  1     ecut=    90.00 Ry     beta=0.70
     Davidson diagonalization with overlap
     ethr =  1.00E-02,  avg # of iterations =  5.0

     Threshold (ethr) on eigenvalues was too large:
     Diagonalizing with lowered threshold

     Davidson diagonalization with overlap
     ethr =  1.99E-04,  avg # of iterations =  2.2

     total cpu time spent up to now is       21.3 secs

     total energy              =     -39.50248952 Ry
     Harris-Foulkes estimate   =     -39.50392121 Ry
     estimated scf accuracy    <       0.00563905 Ry

     iteration #  2     ecut=    90.00 Ry     beta=0.70
     Davidson diagonalization with overlap
     ethr =  1.88E-04,  avg # of iterations =  1.1

     total cpu time spent up to now is       28.3 secs

     total energy              =     -39.50245143 Ry
     Harris-Foulkes estimate   =     -39.50255904 Ry
     estimated scf accuracy    <       0.00040877 Ry

     iteration #  3     ecut=    90.00 Ry     beta=0.70
     Davidson diagonalization with overlap
     ethr =  1.36E-05,  avg # of iterations =  1.6

     total cpu time spent up to now is       34.8 secs

     total energy              =     -39.50247238 Ry
     Harris-Foulkes estimate   =     -39.50247294 Ry
     estimated scf accuracy    <       0.00000139 Ry

     iteration #  4     ecut=    90.00 Ry     beta=0.70
     Davidson diagonalization with overlap
     ethr =  4.64E-08,  avg # of iterations =  3.2

     total cpu time spent up to now is       40.4 secs

     End of self-consistent calculation

     Number of k-points >= 100: set verbosity='high' to print the bands.

     the Fermi energy is     7.9017 ev

!    total energy              =     -39.50247365 Ry
     Harris-Foulkes estimate   =     -39.50247370 Ry
     estimated scf accuracy    <       0.00000009 Ry

     total all-electron energy =      -485.645255 Ry

     The total energy is the sum of the following terms:

     one-electron contribution =       3.16835758 Ry
     hartree contribution      =       0.00563348 Ry
     xc contribution           =      -3.03130175 Ry
     ewald contribution        =      -5.40809419 Ry
     one-center paw contrib.   =     -34.23704754 Ry
     smearing contrib. (-TS)   =      -0.00002122 Ry

     convergence has been achieved in   4 iterations

     Writing output data file Al.save

     init_run     :      1.52s CPU      3.14s WALL (       1 calls)
     electrons    :     15.39s CPU     36.78s WALL (       1 calls)

     Called by init_run:
     wfcinit      :      1.06s CPU      2.55s WALL (       1 calls)
     potinit      :      0.09s CPU      0.10s WALL (       1 calls)

     Called by electrons:
     c_bands      :     12.61s CPU     30.59s WALL (       5 calls)
     sum_band     :      2.39s CPU      5.45s WALL (       5 calls)
     v_of_rho     :      0.11s CPU      0.22s WALL (       5 calls)
     newd         :      0.03s CPU      0.06s WALL (       5 calls)
     mix_rho      :      0.03s CPU      0.05s WALL (       5 calls)

     Called by c_bands:
     init_us_2    :      0.31s CPU      0.38s WALL (    1144 calls)
     cegterg      :     12.34s CPU     30.23s WALL (     520 calls)

     Called by *egterg:
     h_psi        :     11.81s CPU     29.22s WALL (    1978 calls)
     s_psi        :      0.07s CPU      0.09s WALL (    1978 calls)
     g_psi        :      0.06s CPU      0.08s WALL (    1354 calls)
     cdiaghg      :      0.48s CPU      1.12s WALL (    1770 calls)

     Called by h_psi:
     add_vuspsi   :      0.08s CPU      0.12s WALL (    1978 calls)

     General routines
     calbec       :      0.29s CPU      0.97s WALL (    2498 calls)
     fft          :      0.06s CPU      0.22s WALL (      67 calls)
     fftw         :     12.62s CPU     31.65s WALL (   20970 calls)
     davcio       :      0.04s CPU      0.07s WALL (    1664 calls)

     Parallel routines
     fft_scatter  :      5.12s CPU     21.83s WALL (   21037 calls)

     PAW routines
     PAW_pot      :      0.29s CPU      0.45s WALL (       5 calls)
     PAW_ddot     :      0.02s CPU      0.03s WALL (      12 calls)
     PAW_symme    :      0.00s CPU      0.01s WALL (      10 calls)

     PWSCF        :    17.84s CPU        41.13s WALL


   This run was terminated on:   2:25:14  12Jul2015            

=------------------------------------------------------------------------------=
   JOB DONE.
=------------------------------------------------------------------------------=
