
     Program PWSCF v.5.0.2 (svn rev. 9656) starts on 11Jul2015 at 20:21:41 

     This program is part of the open-source Quantum ESPRESSO suite
     for quantum simulation of materials; please cite
         "P. Giannozzi et al., J. Phys.:Condens. Matter 21 395502 (2009);
          URL http://www.quantum-espresso.org", 
     in publications or presentations arising from this work. More details at
     http://www.quantum-espresso.org/quote.php

     Parallel version (MPI), running on     4 processors
     R & G space division:  proc/nbgrp/npool/nimage =       4

     Current dimensions of program PWSCF are:
     Max number of different atomic species (ntypx) = 10
     Max number of k-points (npk) =  40000
     Max angular momentum in pseudopotentials (lmaxx) =  3
     Waiting for input...
     Reading input from standard input
               file Cu.pbe.UPF: wavefunction(s)  4S 3D renormalized

     Subspace diagonalization in iterative solution of the eigenvalue problem:
     a serial algorithm will be used


     Parallelization info
     --------------------
     sticks:   dense  smooth     PW     G-vecs:    dense   smooth      PW
     Min         214     214     63                 4156     4156     682
     Max         217     217     64                 4157     4157     686
     Sum         859     859    253                16625    16625    2733



     bravais-lattice index     =            2
     lattice parameter (alat)  =      10.2000  a.u.
     unit-cell volume          =     265.3020 (a.u.)^3
     number of atoms/cell      =            2
     number of atomic types    =            1
     number of electrons       =        22.00
     number of Kohn-Sham states=           15
     kinetic-energy cutoff     =      60.0000  Ry
     charge density cutoff     =     240.0000  Ry
     convergence threshold     =      1.0E-07
     mixing beta               =       0.7000
     number of iterations used =            8  plain     mixing
     Exchange-correlation      =  SLA  PW   PBX  PBC ( 1 4 3 4 0)
     EXX-fraction              =        0.00

     celldm(1)=  10.200000  celldm(2)=   0.000000  celldm(3)=   0.000000
     celldm(4)=   0.000000  celldm(5)=   0.000000  celldm(6)=   0.000000

     crystal axes: (cart. coord. in units of alat)
               a(1) = (  -0.500000   0.000000   0.500000 )  
               a(2) = (   0.000000   0.500000   0.500000 )  
               a(3) = (  -0.500000   0.500000   0.000000 )  

     reciprocal axes: (cart. coord. in units 2 pi/alat)
               b(1) = ( -1.000000 -1.000000  1.000000 )  
               b(2) = (  1.000000  1.000000  1.000000 )  
               b(3) = ( -1.000000  1.000000 -1.000000 )  


     PseudoPot. # 1 for Cu read from file:
     ./Cu.pbe.UPF
     MD5 check sum: 0c51aa2b3b25e0d1c3270f17c0a46a12
     Pseudo is Projector augmented-wave + core cor, Zval = 11.0
     Generated using "atomic" code by A. Dal Corso  v.5.0.99 svn rev. 10869
     Shape of augmentation charge: BESSEL
     Using radial grid of 1199 points,  6 beta functions with: 
                l(1) =   0
                l(2) =   0
                l(3) =   1
                l(4) =   1
                l(5) =   2
                l(6) =   2
     Q(r) pseudized with 0 coefficients 


     atomic species   valence    mass     pseudopotential
        Cu            11.00    63.54600     Cu( 1.00)

     48 Sym. Ops., with inversion, found (24 have fractional translation)



   Cartesian axes

     site n.     atom                  positions (alat units)
         1           Cu  tau(   1) = (   0.0000000   0.0000000   0.0000000  )
         2           Cu  tau(   2) = (   0.2500000   0.2500000   0.2500000  )

     number of k points=    29  gaussian smearing, width (Ry)=  0.0030
                       cart. coord. in units 2pi/alat
        k(    1) = (   0.0000000   0.0000000   0.0000000), wk =   0.0039062
        k(    2) = (  -0.1250000   0.1250000  -0.1250000), wk =   0.0312500
        k(    3) = (  -0.2500000   0.2500000  -0.2500000), wk =   0.0312500
        k(    4) = (  -0.3750000   0.3750000  -0.3750000), wk =   0.0312500
        k(    5) = (   0.5000000  -0.5000000   0.5000000), wk =   0.0156250
        k(    6) = (   0.0000000   0.2500000   0.0000000), wk =   0.0234375
        k(    7) = (  -0.1250000   0.3750000  -0.1250000), wk =   0.0937500
        k(    8) = (  -0.2500000   0.5000000  -0.2500000), wk =   0.0937500
        k(    9) = (   0.6250000  -0.3750000   0.6250000), wk =   0.0937500
        k(   10) = (   0.5000000  -0.2500000   0.5000000), wk =   0.0937500
        k(   11) = (   0.3750000  -0.1250000   0.3750000), wk =   0.0937500
        k(   12) = (   0.2500000   0.0000000   0.2500000), wk =   0.0468750
        k(   13) = (   0.0000000   0.5000000   0.0000000), wk =   0.0234375
        k(   14) = (  -0.1250000   0.6250000  -0.1250000), wk =   0.0937500
        k(   15) = (   0.7500000  -0.2500000   0.7500000), wk =   0.0937500
        k(   16) = (   0.6250000  -0.1250000   0.6250000), wk =   0.0937500
        k(   17) = (   0.5000000   0.0000000   0.5000000), wk =   0.0468750
        k(   18) = (   0.0000000   0.7500000   0.0000000), wk =   0.0234375
        k(   19) = (   0.8750000  -0.1250000   0.8750000), wk =   0.0937500
        k(   20) = (   0.7500000   0.0000000   0.7500000), wk =   0.0468750
        k(   21) = (   0.0000000  -1.0000000   0.0000000), wk =   0.0117188
        k(   22) = (  -0.2500000   0.5000000   0.0000000), wk =   0.0937500
        k(   23) = (   0.6250000  -0.3750000   0.8750000), wk =   0.1875000
        k(   24) = (   0.5000000  -0.2500000   0.7500000), wk =   0.0937500
        k(   25) = (   0.7500000  -0.2500000   1.0000000), wk =   0.0937500
        k(   26) = (   0.6250000  -0.1250000   0.8750000), wk =   0.1875000
        k(   27) = (   0.5000000   0.0000000   0.7500000), wk =   0.0937500
        k(   28) = (  -0.2500000  -1.0000000   0.0000000), wk =   0.0468750
        k(   29) = (  -0.5000000  -1.0000000   0.0000000), wk =   0.0234375

     Dense  grid:    16625 G-vectors     FFT dimensions: (  36,  36,  36)

     Largest allocated arrays     est. size (Mb)     dimensions
        Kohn-Sham Wavefunctions         0.12 Mb     (    544,   15)
        NL pseudopotentials             0.30 Mb     (    544,   36)
        Each V/rho on FFT grid          0.18 Mb     (  11664)
        Each G-vector array             0.03 Mb     (   4157)
        G-vector shells                 0.00 Mb     (    213)
     Largest temporary arrays     est. size (Mb)     dimensions
        Auxiliary wavefunctions         0.50 Mb     (    544,   60)
        Each subspace H/S matrix        0.05 Mb     (  60,  60)
        Each <psi_i|beta_j> matrix      0.01 Mb     (     36,   15)
        Arrays for rho mixing           1.42 Mb     (  11664,   8)

     Check: negative/imaginary core charge=   -0.000021    0.000000

     Initial potential from superposition of free atoms

     starting charge   21.99954, renormalised to   22.00000
     Starting wfc are   18 randomized atomic wfcs
     Checking if some PAW data can be deallocated... 

     total cpu time spent up to now is        2.7 secs

     per-process dynamical memory:    12.2 Mb

     Self-consistent Calculation

     iteration #  1     ecut=    60.00 Ry     beta=0.70
     Davidson diagonalization with overlap
     ethr =  1.00E-02,  avg # of iterations =  3.5

     Threshold (ethr) on eigenvalues was too large:
     Diagonalizing with lowered threshold

     Davidson diagonalization with overlap
     ethr =  2.21E-05,  avg # of iterations =  4.3

     total cpu time spent up to now is        8.6 secs

     total energy              =    -426.03792111 Ry
     Harris-Foulkes estimate   =    -426.03867153 Ry
     estimated scf accuracy    <       0.00604069 Ry

     iteration #  2     ecut=    60.00 Ry     beta=0.70
     Davidson diagonalization with overlap
     ethr =  2.75E-05,  avg # of iterations =  2.2

     total cpu time spent up to now is       11.4 secs

     total energy              =    -426.03632360 Ry
     Harris-Foulkes estimate   =    -426.04070294 Ry
     estimated scf accuracy    <       0.00961340 Ry

     iteration #  3     ecut=    60.00 Ry     beta=0.70
     Davidson diagonalization with overlap
     ethr =  2.75E-05,  avg # of iterations =  2.2

     total cpu time spent up to now is       14.2 secs

     total energy              =    -426.03864343 Ry
     Harris-Foulkes estimate   =    -426.03935136 Ry
     estimated scf accuracy    <       0.00250513 Ry

     iteration #  4     ecut=    60.00 Ry     beta=0.70
     Davidson diagonalization with overlap
     ethr =  1.14E-05,  avg # of iterations =  1.2

     total cpu time spent up to now is       16.5 secs

     total energy              =    -426.03896114 Ry
     Harris-Foulkes estimate   =    -426.03896149 Ry
     estimated scf accuracy    <       0.00000320 Ry

     iteration #  5     ecut=    60.00 Ry     beta=0.70
     Davidson diagonalization with overlap
     ethr =  1.45E-08,  avg # of iterations =  3.9

     total cpu time spent up to now is       20.1 secs

     total energy              =    -426.03898495 Ry
     Harris-Foulkes estimate   =    -426.03898527 Ry
     estimated scf accuracy    <       0.00000213 Ry

     iteration #  6     ecut=    60.00 Ry     beta=0.70
     Davidson diagonalization with overlap
     ethr =  9.68E-09,  avg # of iterations =  1.0

     total cpu time spent up to now is       22.5 secs

     total energy              =    -426.03898515 Ry
     Harris-Foulkes estimate   =    -426.03898511 Ry
     estimated scf accuracy    <       0.00000039 Ry

     iteration #  7     ecut=    60.00 Ry     beta=0.70
     Davidson diagonalization with overlap
     ethr =  1.79E-09,  avg # of iterations =  1.0

     total cpu time spent up to now is       24.9 secs

     total energy              =    -426.03898511 Ry
     Harris-Foulkes estimate   =    -426.03898517 Ry
     estimated scf accuracy    <       0.00000070 Ry

     iteration #  8     ecut=    60.00 Ry     beta=0.70
     Davidson diagonalization with overlap
     ethr =  1.79E-09,  avg # of iterations =  1.0

     total cpu time spent up to now is       27.4 secs

     total energy              =    -426.03898511 Ry
     Harris-Foulkes estimate   =    -426.03898512 Ry
     estimated scf accuracy    <       0.00000035 Ry

     iteration #  9     ecut=    60.00 Ry     beta=0.70
     Davidson diagonalization with overlap
     ethr =  1.57E-09,  avg # of iterations =  1.0

     total cpu time spent up to now is       29.8 secs

     total energy              =    -426.03898507 Ry
     Harris-Foulkes estimate   =    -426.03898511 Ry
     estimated scf accuracy    <       0.00000028 Ry

     iteration # 10     ecut=    60.00 Ry     beta=0.70
     Davidson diagonalization with overlap
     ethr =  1.29E-09,  avg # of iterations =  1.0

     total cpu time spent up to now is       32.1 secs

     End of self-consistent calculation

          k = 0.0000 0.0000 0.0000 (  2085 PWs)   bands (ev):

     0.6621   3.9596   3.9596   3.9596   3.9833   3.9833   5.0148   5.0148
     5.0148   5.6376   5.6376  16.3748  16.3748  16.3748  17.3200

          k =-0.1250 0.1250-0.1250 (  2079 PWs)   bands (ev):

     0.9005   3.8749   3.8749   3.9650   4.1041   4.1041   4.9672   5.0091
     5.0091   5.6381   5.6381  13.6497  15.5077  15.5077  17.7628

          k =-0.2500 0.2500-0.2500 (  2067 PWs)   bands (ev):

     1.5823   3.8517   3.8517   3.9900   4.1872   4.1872   4.8692   5.0370
     5.0370   5.6275   5.6275  10.5834  14.5770  14.5770  17.5449

          k =-0.3750 0.3750-0.3750 (  2072 PWs)   bands (ev):

     2.5248   3.9010   3.9010   4.0220   4.1534   4.1534   4.9289   5.1414
     5.1414   5.5893   5.5893   7.9829  13.9727  13.9727  17.5470

          k = 0.5000-0.5000 0.5000 (  2060 PWs)   bands (ev):

     3.0589   3.9656   3.9656   4.0068   4.0839   4.0839   5.2157   5.2157
     5.4248   5.5552   5.5552   6.4316  13.7626  13.7626  17.7078

          k = 0.0000 0.2500 0.0000 (  2077 PWs)   bands (ev):

     0.9809   3.7820   3.9724   3.9724   4.0522   4.1762   4.8316   5.0726
     5.0726   5.5810   5.6822  14.3594  14.3594  14.9683  16.2740

          k =-0.1250 0.3750-0.1250 (  2065 PWs)   bands (ev):

     1.5194   3.7285   3.9587   3.9829   4.1472   4.2769   4.6883   5.1092
     5.1411   5.5289   5.7052  11.6553  13.4372  14.2336  16.5777

          k =-0.2500 0.5000-0.2500 (  2072 PWs)   bands (ev):

     2.4001   3.7463   3.9741   3.9945   4.1686   4.2868   4.6896   5.1927
     5.2217   5.4998   5.6998   8.9112  12.9609  13.2180  16.3448

          k = 0.6250-0.3750 0.6250 (  2080 PWs)   bands (ev):

     3.1468   3.7969   3.9504   3.9999   4.1877   4.1952   4.9394   5.1826
     5.5636   5.5766   5.7198   6.7673  12.4119  13.0208  16.3409

          k = 0.5000-0.2500 0.5000 (  2083 PWs)   bands (ev):

     2.9588   3.8559   3.8770   4.0599   4.0794   4.2751   5.0034   5.0372
     5.4387   5.5370   5.6542   7.4040  12.0286  13.6185  16.7779

          k = 0.3750-0.1250 0.3750 (  2078 PWs)   bands (ev):

     2.0781   3.7863   3.9296   3.9798   4.1337   4.3156   4.8255   4.9254
     5.2726   5.5095   5.6949   9.7985  12.1459  14.6403  17.6484

          k = 0.2500 0.0000 0.2500 (  2067 PWs)   bands (ev):

     1.2890   3.7900   3.9113   3.9731   4.1225   4.2316   4.8660   4.9385
     5.1394   5.5727   5.6837  12.5733  12.8470  15.7386  17.9957

          k = 0.0000 0.5000 0.0000 (  2045 PWs)   bands (ev):

     1.9065   3.6416   3.9928   3.9928   4.2462   4.3686   4.4354   5.2529
     5.2529   5.4172   5.7518  12.3639  12.4014  12.4014  15.2153

          k =-0.1250 0.6250-0.1250 (  2079 PWs)   bands (ev):

     2.6629   3.6309   3.9713   3.9934   4.3013   4.3446   4.4506   5.2586
     5.3778   5.4343   5.8015  10.0039  11.4909  11.8093  15.3116

          k = 0.7500-0.2500 0.7500 (  2081 PWs)   bands (ev):

     3.4224   3.6619   3.9220   3.9603   4.2740   4.4085   4.6291   5.1000
     5.5865   5.6453   5.9863   7.7508  10.3738  11.8067  15.3345

          k = 0.6250-0.1250 0.6250 (  2088 PWs)   bands (ev):

     3.4660   3.7713   3.8804   3.9726   4.1576   4.4786   4.9102   4.9178
     5.6694   5.6863   6.0747   7.2542   9.6736  12.4131  15.7035

          k = 0.5000 0.0000 0.5000 (  2085 PWs)   bands (ev):

     2.8605   3.8038   3.8645   4.0360   4.0743   4.4601   4.8421   4.9332
     5.4392   5.5171   5.7185   9.2353   9.6960  13.4921  16.4705

          k = 0.0000 0.7500 0.0000 (  2084 PWs)   bands (ev):

     3.2639   3.6042   4.0005   4.0005   4.0231   4.4880   4.5298   5.1639
     5.5083   5.5083   5.9565   9.4254  11.0423  11.0423  14.6783

          k = 0.8750-0.1250 0.8750 (  2089 PWs)   bands (ev):

     3.6444   3.8118   3.8590   3.9871   4.1753   4.4789   4.6560   4.9912
     5.6223   5.6571   6.3444   8.1095   9.6973  10.8806  14.7882

          k = 0.7500 0.0000 0.7500 (  2085 PWs)   bands (ev):

     3.6281   3.8492   3.9156   3.9397   4.2276   4.6710   4.6929   4.8324
     5.6814   5.7599   6.9619   7.3890   8.3305  11.3851  15.0592

          k = 0.0000-1.0000 0.0000 (  2100 PWs)   bands (ev):

     3.7255   3.7255   4.0006   4.0006   4.3056   4.3056   4.8531   4.8531
     5.6452   5.6452   7.0233   7.0233  10.5331  10.5331  14.6196

          k =-0.2500 0.5000 0.0000 (  2074 PWs)   bands (ev):

     2.1697   3.6956   3.9517   4.0007   4.1924   4.3811   4.5584   5.1179
     5.3310   5.4403   5.7376  10.7559  11.1749  13.4408  17.0426

          k = 0.6250-0.3750 0.8750 (  2080 PWs)   bands (ev):

     3.0222   3.7247   3.8780   4.0437   4.1979   4.3942   4.6601   5.1300
     5.4714   5.5391   5.7571   8.4033  10.7237  12.3439  16.9553

          k = 0.5000-0.2500 0.7500 (  2092 PWs)   bands (ev):

     3.4604   3.7289   3.8392   4.0421   4.2344   4.3412   4.8679   5.0248
     5.6376   5.6684   6.4532   6.4935  10.7396  11.8150  16.8856

          k = 0.7500-0.2500 1.0000 (  2085 PWs)   bands (ev):

     3.3719   3.6413   3.8640   4.0263   4.2936   4.4187   4.5169   5.1121
     5.5576   5.5776   5.9505   9.1036  10.0415  10.7733  16.3226

          k = 0.6250-0.1250 0.8750 (  2092 PWs)   bands (ev):

     3.6587   3.7262   3.8580   4.0242   4.3276   4.5268   4.6581   4.9118
     5.6853   5.7366   6.5936   7.5739   9.1154  10.4757  16.5437

          k = 0.5000 0.0000 0.7500 (  2091 PWs)   bands (ev):

     3.5568   3.7508   3.8170   4.0422   4.2379   4.5779   4.6611   4.9538
     5.6960   5.7046   6.1427   8.1368   8.7773  11.1823  17.0318

          k =-0.2500-1.0000 0.0000 (  2098 PWs)   bands (ev):

     3.7014   3.7014   3.9992   3.9992   4.3920   4.3920   4.7996   4.7996
     5.7005   5.7005   7.1568   7.1568   9.7209   9.7209  16.1342

          k =-0.5000-1.0000 0.0000 (  2120 PWs)   bands (ev):

     3.6816   3.6816   3.9959   3.9959   4.5049   4.5049   4.7188   4.7188
     5.7532   5.7532   7.3748   7.3748   9.0091   9.0091  18.6369

     the Fermi energy is     6.7438 ev

!    total energy              =    -426.03898503 Ry
     Harris-Foulkes estimate   =    -426.03898508 Ry
     estimated scf accuracy    <       0.00000006 Ry

     total all-electron energy =     -6619.798521 Ry

     The total energy is the sum of the following terms:

     one-electron contribution =    -116.81400775 Ry
     hartree contribution      =      57.85393078 Ry
     xc contribution           =     -73.46846573 Ry
     ewald contribution        =    -127.80442421 Ry
     one-center paw contrib.   =    -165.80596107 Ry
     smearing contrib. (-TS)   =      -0.00005705 Ry

     convergence has been achieved in  10 iterations

     Writing output data file Cu.save

     init_run     :      1.81s CPU      1.91s WALL (       1 calls)
     electrons    :     28.55s CPU     29.37s WALL (       1 calls)

     Called by init_run:
     wfcinit      :      0.80s CPU      0.83s WALL (       1 calls)
     potinit      :      0.35s CPU      0.38s WALL (       1 calls)

     Called by electrons:
     c_bands      :     19.48s CPU     19.99s WALL (      11 calls)
     sum_band     :      4.18s CPU      4.29s WALL (      11 calls)
     v_of_rho     :      0.24s CPU      0.24s WALL (      11 calls)
     newd         :      0.53s CPU      0.53s WALL (      11 calls)
     mix_rho      :      0.87s CPU      0.88s WALL (      11 calls)

     Called by c_bands:
     init_us_2    :      0.51s CPU      0.53s WALL (     667 calls)
     cegterg      :     18.19s CPU     18.59s WALL (     319 calls)

     Called by *egterg:
     h_psi        :     15.48s CPU     15.81s WALL (     996 calls)
     s_psi        :      0.50s CPU      0.49s WALL (     996 calls)
     g_psi        :      0.13s CPU      0.14s WALL (     648 calls)
     cdiaghg      :      1.07s CPU      1.09s WALL (     938 calls)

     Called by h_psi:
     add_vuspsi   :      0.48s CPU      0.49s WALL (     996 calls)

     General routines
     calbec       :      0.80s CPU      0.78s WALL (    1315 calls)
     fft          :      0.11s CPU      0.12s WALL (     145 calls)
     fftw         :     15.89s CPU     15.97s WALL (   29445 calls)
     davcio       :      0.08s CPU      0.09s WALL (     986 calls)

     Parallel routines
     fft_scatter  :      3.11s CPU      3.02s WALL (   29590 calls)

     PAW routines
     PAW_pot      :      3.57s CPU      3.75s WALL (      11 calls)
     PAW_ddot     :      0.84s CPU      0.84s WALL (     167 calls)
     PAW_symme    :      0.02s CPU      0.02s WALL (      22 calls)

     PWSCF        :    31.37s CPU        32.31s WALL


   This run was terminated on:  20:22:13  11Jul2015            

=------------------------------------------------------------------------------=
   JOB DONE.
=------------------------------------------------------------------------------=
