
     Program PWSCF v.5.0.2 (svn rev. 9656) starts on 12Jul2015 at  2:13:25 

     This program is part of the open-source Quantum ESPRESSO suite
     for quantum simulation of materials; please cite
         "P. Giannozzi et al., J. Phys.:Condens. Matter 21 395502 (2009);
          URL http://www.quantum-espresso.org", 
     in publications or presentations arising from this work. More details at
     http://www.quantum-espresso.org/quote.php

     Parallel version (MPI), running on     4 processors
     R & G space division:  proc/nbgrp/npool/nimage =       4

     Current dimensions of program PWSCF are:
     Max number of different atomic species (ntypx) = 10
     Max number of k-points (npk) =  40000
     Max angular momentum in pseudopotentials (lmaxx) =  3
     Waiting for input...
     Reading input from standard input
               file Al.pbe-n-kjpaw_psl.0.1.UPF: wavefunction(s)  3S renormalized

     Subspace diagonalization in iterative solution of the eigenvalue problem:
     a serial algorithm will be used


     Parallelization info
     --------------------
     sticks:   dense  smooth     PW     G-vecs:    dense   smooth      PW
     Min         127     127     40                 1947     1947     351
     Max         128     128     41                 1951     1951     354
     Sum         511     511    163                 7799     7799    1411



     bravais-lattice index     =            2
     lattice parameter (alat)  =       7.6300  a.u.
     unit-cell volume          =     111.0487 (a.u.)^3
     number of atoms/cell      =            1
     number of atomic types    =            1
     number of electrons       =         3.00
     number of Kohn-Sham states=            6
     kinetic-energy cutoff     =      65.0000  Ry
     charge density cutoff     =     260.0000  Ry
     convergence threshold     =      1.0E-07
     mixing beta               =       0.7000
     number of iterations used =            8  plain     mixing
     Exchange-correlation      =  SLA  PW   PBX  PBC ( 1 4 3 4 0)
     EXX-fraction              =        0.00

     celldm(1)=   7.630000  celldm(2)=   0.000000  celldm(3)=   0.000000
     celldm(4)=   0.000000  celldm(5)=   0.000000  celldm(6)=   0.000000

     crystal axes: (cart. coord. in units of alat)
               a(1) = (  -0.500000   0.000000   0.500000 )  
               a(2) = (   0.000000   0.500000   0.500000 )  
               a(3) = (  -0.500000   0.500000   0.000000 )  

     reciprocal axes: (cart. coord. in units 2 pi/alat)
               b(1) = ( -1.000000 -1.000000  1.000000 )  
               b(2) = (  1.000000  1.000000  1.000000 )  
               b(3) = ( -1.000000  1.000000 -1.000000 )  


     PseudoPot. # 1 for Al read from file:
     ./Al.pbe-n-kjpaw_psl.0.1.UPF
     MD5 check sum: 023d9faf819c76fc4df1f064efe7b7b2
     Pseudo is Projector augmented-wave + core cor, Zval =  3.0
     Generated using "atomic" code by A. Dal Corso  v.5.0.2 svn rev. 9415
     Shape of augmentation charge: PSQ
     Using radial grid of 1135 points,  4 beta functions with: 
                l(1) =   0
                l(2) =   0
                l(3) =   1
                l(4) =   1
     Q(r) pseudized with 0 coefficients 


     atomic species   valence    mass     pseudopotential
        Al             3.00    26.98154     Al( 1.00)

     48 Sym. Ops., with inversion, found



   Cartesian axes

     site n.     atom                  positions (alat units)
         1           Al  tau(   1) = (   0.0000000   0.0000000   0.0000000  )

     number of k points=    20  gaussian smearing, width (Ry)=  0.0030
                       cart. coord. in units 2pi/alat
        k(    1) = (   0.0000000   0.0000000   0.0000000), wk =   0.0058309
        k(    2) = (  -0.1428571   0.1428571  -0.1428571), wk =   0.0466472
        k(    3) = (  -0.2857143   0.2857143  -0.2857143), wk =   0.0466472
        k(    4) = (  -0.4285714   0.4285714  -0.4285714), wk =   0.0466472
        k(    5) = (   0.0000000   0.2857143   0.0000000), wk =   0.0349854
        k(    6) = (  -0.1428571   0.4285714  -0.1428571), wk =   0.1399417
        k(    7) = (  -0.2857143   0.5714286  -0.2857143), wk =   0.1399417
        k(    8) = (   0.5714286  -0.2857143   0.5714286), wk =   0.1399417
        k(    9) = (   0.4285714  -0.1428571   0.4285714), wk =   0.1399417
        k(   10) = (   0.2857143  -0.0000000   0.2857143), wk =   0.0699708
        k(   11) = (   0.0000000   0.5714286   0.0000000), wk =   0.0349854
        k(   12) = (  -0.1428571   0.7142857  -0.1428571), wk =   0.1399417
        k(   13) = (   0.7142857  -0.1428571   0.7142857), wk =   0.1399417
        k(   14) = (   0.5714286   0.0000000   0.5714286), wk =   0.0699708
        k(   15) = (   0.0000000   0.8571429   0.0000000), wk =   0.0349854
        k(   16) = (   0.8571429  -0.0000000   0.8571429), wk =   0.0699708
        k(   17) = (  -0.2857143   0.5714286   0.0000000), wk =   0.1399417
        k(   18) = (   0.5714286  -0.2857143   0.8571429), wk =   0.2798834
        k(   19) = (   0.7142857  -0.1428571   1.0000000), wk =   0.1399417
        k(   20) = (   0.5714286   0.0000000   0.8571429), wk =   0.1399417

     Dense  grid:     7799 G-vectors     FFT dimensions: (  27,  27,  27)

     Largest allocated arrays     est. size (Mb)     dimensions
        Kohn-Sham Wavefunctions         0.02 Mb     (    250,    6)
        NL pseudopotentials             0.03 Mb     (    250,    8)
        Each V/rho on FFT grid          0.08 Mb     (   5103)
        Each G-vector array             0.01 Mb     (   1950)
        G-vector shells                 0.00 Mb     (    128)
     Largest temporary arrays     est. size (Mb)     dimensions
        Auxiliary wavefunctions         0.09 Mb     (    250,   24)
        Each subspace H/S matrix        0.01 Mb     (  24,  24)
        Each <psi_i|beta_j> matrix      0.00 Mb     (      8,    6)
        Arrays for rho mixing           0.62 Mb     (   5103,   8)

     Check: negative/imaginary core charge=   -0.000001    0.000000

     Initial potential from superposition of free atoms

     starting charge    2.99771, renormalised to    3.00000
     Starting wfc are    4 randomized atomic wfcs
     Checking if some PAW data can be deallocated... 

     total cpu time spent up to now is        0.8 secs

     per-process dynamical memory:     9.1 Mb

     Self-consistent Calculation

     iteration #  1     ecut=    65.00 Ry     beta=0.70
     Davidson diagonalization with overlap
     ethr =  1.00E-02,  avg # of iterations =  4.9

     Threshold (ethr) on eigenvalues was too large:
     Diagonalizing with lowered threshold

     Davidson diagonalization with overlap
     ethr =  2.05E-04,  avg # of iterations =  2.2

     total cpu time spent up to now is        1.5 secs

     total energy              =     -39.50637270 Ry
     Harris-Foulkes estimate   =     -39.50773988 Ry
     estimated scf accuracy    <       0.00582818 Ry

     iteration #  2     ecut=    65.00 Ry     beta=0.70
     Davidson diagonalization with overlap
     ethr =  1.94E-04,  avg # of iterations =  1.0

     total cpu time spent up to now is        1.8 secs

     total energy              =     -39.50633043 Ry
     Harris-Foulkes estimate   =     -39.50643717 Ry
     estimated scf accuracy    <       0.00043416 Ry

     iteration #  3     ecut=    65.00 Ry     beta=0.70
     Davidson diagonalization with overlap
     ethr =  1.45E-05,  avg # of iterations =  1.6

     total cpu time spent up to now is        2.1 secs

     total energy              =     -39.50635048 Ry
     Harris-Foulkes estimate   =     -39.50635105 Ry
     estimated scf accuracy    <       0.00000133 Ry

     iteration #  4     ecut=    65.00 Ry     beta=0.70
     Davidson diagonalization with overlap
     ethr =  4.44E-08,  avg # of iterations =  4.0

     total cpu time spent up to now is        2.4 secs

     End of self-consistent calculation

          k = 0.0000 0.0000 0.0000 (   941 PWs)   bands (ev):

    -3.2221  20.5733  20.5733  22.0514  22.0515  22.0515

          k =-0.1429 0.1429-0.1429 (   962 PWs)   bands (ev):

    -2.6672  15.5408  19.4775  19.4776  22.6142  23.8511

          k =-0.2857 0.2857-0.2857 (   974 PWs)   bands (ev):

    -1.0150  10.0825  18.7593  18.7593  22.0809  22.0809

          k =-0.4286 0.4286-0.4286 (   978 PWs)   bands (ev):

     1.6973   5.4267  18.9428  18.9428  20.0589  20.0589

          k = 0.0000 0.2857 0.0000 (   966 PWs)   bands (ev):

    -2.4826  17.4640  17.4640  17.6693  20.6264  21.6578

          k =-0.1429 0.4286-0.1429 (   974 PWs)   bands (ev):

    -1.1977  12.2253  16.3770  17.9080  18.3351  22.2135

          k =-0.2857 0.5714-0.2857 (   984 PWs)   bands (ev):

     1.1583   7.3317  15.8111  16.2321  17.9754  24.0087

          k = 0.5714-0.2857 0.5714 (   990 PWs)   bands (ev):

     3.2927   4.5512  14.3245  17.0327  18.8741  22.6190

          k = 0.4286-0.1429 0.4286 (   981 PWs)   bands (ev):

     0.2570   8.8530  13.8539  18.7745  20.7314  22.1212

          k = 0.2857-0.0000 0.2857 (   977 PWs)   bands (ev):

    -1.7470  13.5224  14.8609  21.3568  22.0099  23.3744

          k = 0.0000 0.5714 0.0000 (   990 PWs)   bands (ev):

    -0.2874  14.4956  14.8368  14.9552  14.9552  18.4760

          k =-0.1429 0.7143-0.1429 (   991 PWs)   bands (ev):

     1.6924  10.1639  11.6555  14.4864  15.9728  20.4964

          k = 0.7143-0.1429 0.7143 (   985 PWs)   bands (ev):

     4.6657   5.9432   9.8087  14.9664  16.6778  25.0592

          k = 0.5714 0.0000 0.5714 (   983 PWs)   bands (ev):

     2.5882   8.0658   9.5758  16.3970  18.2883  26.2467

          k = 0.0000 0.8571 0.0000 (   998 PWs)   bands (ev):

     3.2694   8.3879  13.3822  13.6969  13.6969  17.1873

          k = 0.8571-0.0000 0.8571 (   985 PWs)   bands (ev):

     5.3424   6.6863   9.5228  13.8566  15.2699  19.8806

          k =-0.2857 0.5714 0.0000 (   986 PWs)   bands (ev):

     0.4372  10.7969  12.2530  15.2086  20.3151  22.0551

          k = 0.5714-0.2857 0.8571 (   987 PWs)   bands (ev):

     3.1167   6.7790  11.8056  13.0748  21.2278  22.4999

          k = 0.7143-0.1429 1.0000 (   987 PWs)   bands (ev):

     3.9732   9.0420   9.4311  11.0138  19.0071  20.9733

          k = 0.5714 0.0000 0.8571 (   984 PWs)   bands (ev):

     6.0527   6.7028   8.1606  11.2320  20.6433  25.0714

     the Fermi energy is     8.0747 ev

!    total energy              =     -39.50635190 Ry
     Harris-Foulkes estimate   =     -39.50635195 Ry
     estimated scf accuracy    <       0.00000008 Ry

     total all-electron energy =      -485.649134 Ry

     The total energy is the sum of the following terms:

     one-electron contribution =       3.16445404 Ry
     hartree contribution      =       0.00632364 Ry
     xc contribution           =      -3.03175229 Ry
     ewald contribution        =      -5.40809419 Ry
     one-center paw contrib.   =     -34.23722527 Ry
     smearing contrib. (-TS)   =      -0.00005783 Ry

     convergence has been achieved in   4 iterations

     Writing output data file Al.save

     init_run     :      0.41s CPU      0.44s WALL (       1 calls)
     electrons    :      1.52s CPU      1.59s WALL (       1 calls)

     Called by init_run:
     wfcinit      :      0.08s CPU      0.08s WALL (       1 calls)
     potinit      :      0.06s CPU      0.07s WALL (       1 calls)

     Called by electrons:
     c_bands      :      1.03s CPU      1.09s WALL (       5 calls)
     sum_band     :      0.20s CPU      0.21s WALL (       5 calls)
     v_of_rho     :      0.04s CPU      0.04s WALL (       5 calls)
     newd         :      0.02s CPU      0.02s WALL (       5 calls)
     mix_rho      :      0.02s CPU      0.02s WALL (       5 calls)

     Called by c_bands:
     init_us_2    :      0.04s CPU      0.04s WALL (     220 calls)
     cegterg      :      1.00s CPU      1.05s WALL (     100 calls)

     Called by *egterg:
     h_psi        :      0.89s CPU      0.94s WALL (     395 calls)
     s_psi        :      0.01s CPU      0.01s WALL (     395 calls)
     g_psi        :      0.01s CPU      0.01s WALL (     275 calls)
     cdiaghg      :      0.08s CPU      0.07s WALL (     355 calls)

     Called by h_psi:
     add_vuspsi   :      0.01s CPU      0.01s WALL (     395 calls)

     General routines
     calbec       :      0.02s CPU      0.02s WALL (     495 calls)
     fft          :      0.03s CPU      0.03s WALL (      67 calls)
     fftw         :      0.98s CPU      0.97s WALL (    4066 calls)
     davcio       :      0.00s CPU      0.01s WALL (     320 calls)

     Parallel routines
     fft_scatter  :      0.17s CPU      0.21s WALL (    4133 calls)

     PAW routines
     PAW_pot      :      0.24s CPU      0.26s WALL (       5 calls)
     PAW_ddot     :      0.02s CPU      0.02s WALL (      12 calls)
     PAW_symme    :      0.00s CPU      0.00s WALL (      10 calls)

     PWSCF        :     2.49s CPU         2.61s WALL


   This run was terminated on:   2:13:28  12Jul2015            

=------------------------------------------------------------------------------=
   JOB DONE.
=------------------------------------------------------------------------------=
