
     Program PWSCF v.5.0.2 (svn rev. 9656) starts on 26Jul2015 at  1:32:13 

     This program is part of the open-source Quantum ESPRESSO suite
     for quantum simulation of materials; please cite
         "P. Giannozzi et al., J. Phys.:Condens. Matter 21 395502 (2009);
          URL http://www.quantum-espresso.org", 
     in publications or presentations arising from this work. More details at
     http://www.quantum-espresso.org/quote.php

     Parallel version (MPI), running on     4 processors
     R & G space division:  proc/nbgrp/npool/nimage =       4

     Current dimensions of program PWSCF are:
     Max number of different atomic species (ntypx) = 10
     Max number of k-points (npk) =  40000
     Max angular momentum in pseudopotentials (lmaxx) =  3
     Waiting for input...
     Reading input from standard input
               file C.pbe-rrkjus.UPF: wavefunction(s)  2S 2P renormalized

     Subspace diagonalization in iterative solution of the eigenvalue problem:
     a serial algorithm will be used


     Parallelization info
     --------------------
     sticks:   dense  smooth     PW     G-vecs:    dense   smooth      PW
     Min         211     105     30                58589    20701    3526
     Max         212     106     31                58614    20746    3581
     Sum         847     421    121               234415    82857   14169



     bravais-lattice index     =            0
     lattice parameter (alat)  =       4.6500  a.u.
     unit-cell volume          =    1044.8904 (a.u.)^3
     number of atoms/cell      =            2
     number of atomic types    =            1
     number of electrons       =         8.00
     number of Kohn-Sham states=            8
     kinetic-energy cutoff     =      70.0000  Ry
     charge density cutoff     =     560.0000  Ry
     convergence threshold     =      1.0E-08
     mixing beta               =       0.7000
     number of iterations used =            8  plain     mixing
     Exchange-correlation      =  SLA  PW   PBE  PBE ( 1 4 3 4 0)
     EXX-fraction              =        0.00

     celldm(1)=   4.650000  celldm(2)=   0.000000  celldm(3)=   0.000000
     celldm(4)=   0.000000  celldm(5)=   0.000000  celldm(6)=   0.000000

     crystal axes: (cart. coord. in units of alat)
               a(1) = (   1.000000   0.000000   0.000000 )  
               a(2) = (   0.500000   0.866025   0.000000 )  
               a(3) = (   0.000000   0.000000  12.000000 )  

     reciprocal axes: (cart. coord. in units 2 pi/alat)
               b(1) = (  1.000000 -0.577350  0.000000 )  
               b(2) = (  0.000000  1.154701  0.000000 )  
               b(3) = (  0.000000  0.000000  0.083333 )  


     PseudoPot. # 1 for C  read from file:
     ./C.pbe-rrkjus.UPF
     MD5 check sum: 00fb224312de0c5b6853bd333518df6f
     Pseudo is Ultrasoft, Zval =  4.0
     Generated by new atomic code, or converted to UPF format
     Using radial grid of  627 points,  4 beta functions with: 
                l(1) =   0
                l(2) =   0
                l(3) =   1
                l(4) =   1
     Q(r) pseudized with 0 coefficients 


     atomic species   valence    mass     pseudopotential
        C              4.00    12.00000     C ( 1.00)

     24 Sym. Ops., with inversion, found (12 have fractional translation)



   Cartesian axes

     site n.     atom                  positions (alat units)
         1           C   tau(   1) = (   0.0000000   0.0000000   0.0000000  )
         2           C   tau(   2) = (   1.0000000   0.5773503   0.0000000  )

     number of k points=    14  gaussian smearing, width (Ry)=  0.0010
                       cart. coord. in units 2pi/alat
        k(    1) = (   0.0000000   0.0000000   0.0000000), wk =   0.0200000
        k(    2) = (   0.0000000   0.1154701   0.0000000), wk =   0.1200000
        k(    3) = (   0.0000000   0.2309401   0.0000000), wk =   0.1200000
        k(    4) = (   0.0000000   0.3464102   0.0000000), wk =   0.1200000
        k(    5) = (   0.0000000   0.4618802   0.0000000), wk =   0.1200000
        k(    6) = (   0.0000000  -0.5773503   0.0000000), wk =   0.0600000
        k(    7) = (   0.1000000   0.1732051   0.0000000), wk =   0.1200000
        k(    8) = (   0.1000000   0.2886751   0.0000000), wk =   0.2400000
        k(    9) = (   0.1000000   0.4041452   0.0000000), wk =   0.2400000
        k(   10) = (   0.1000000  -0.6350853   0.0000000), wk =   0.2400000
        k(   11) = (   0.2000000   0.3464102   0.0000000), wk =   0.1200000
        k(   12) = (   0.2000000  -0.6928203   0.0000000), wk =   0.2400000
        k(   13) = (   0.2000000  -0.5773503   0.0000000), wk =   0.1200000
        k(   14) = (   0.3000000  -0.6350853   0.0000000), wk =   0.1200000

     Dense  grid:   234415 G-vectors     FFT dimensions: (  36,  36, 432)

     Smooth grid:    82857 G-vectors     FFT dimensions: (  25,  25, 300)

     Largest allocated arrays     est. size (Mb)     dimensions
        Kohn-Sham Wavefunctions         0.33 Mb     (   2708,    8)
        NL pseudopotentials             0.66 Mb     (   2708,   16)
        Each V/rho on FFT grid          2.14 Mb     ( 139968)
        Each G-vector array             0.45 Mb     (  58604)
        G-vector shells                 0.14 Mb     (  17717)
     Largest temporary arrays     est. size (Mb)     dimensions
        Auxiliary wavefunctions         1.32 Mb     (   2708,   32)
        Each subspace H/S matrix        0.02 Mb     (  32,  32)
        Each <psi_i|beta_j> matrix      0.00 Mb     (     16,    8)
        Arrays for rho mixing          17.09 Mb     ( 139968,   8)

     Initial potential from superposition of free atoms

     starting charge    7.99989, renormalised to    8.00000

     negative rho (up, down):  0.254E-04 0.000E+00
     Starting wfc are    8 randomized atomic wfcs

     total cpu time spent up to now is        4.4 secs

     per-process dynamical memory:    30.6 Mb

     Self-consistent Calculation

     iteration #  1     ecut=    70.00 Ry     beta=0.70
     Davidson diagonalization with overlap
     ethr =  1.00E-02,  avg # of iterations =  5.1

     negative rho (up, down):  0.176E-04 0.000E+00

     total cpu time spent up to now is       13.2 secs

     total energy              =     -22.75996381 Ry
     Harris-Foulkes estimate   =     -22.88439524 Ry
     estimated scf accuracy    <       0.20650629 Ry

     iteration #  2     ecut=    70.00 Ry     beta=0.70
     Davidson diagonalization with overlap
     ethr =  2.58E-03,  avg # of iterations =  4.1

     negative rho (up, down):  0.171E-04 0.000E+00

     total cpu time spent up to now is       20.2 secs

     total energy              =     -22.79110608 Ry
     Harris-Foulkes estimate   =     -22.79124146 Ry
     estimated scf accuracy    <       0.00249704 Ry

     iteration #  3     ecut=    70.00 Ry     beta=0.70
     Davidson diagonalization with overlap
     ethr =  3.12E-05,  avg # of iterations = 11.6

     negative rho (up, down):  0.186E-04 0.000E+00

     total cpu time spent up to now is       31.1 secs

     total energy              =     -22.79144429 Ry
     Harris-Foulkes estimate   =     -22.79141457 Ry
     estimated scf accuracy    <       0.00014099 Ry

     iteration #  4     ecut=    70.00 Ry     beta=0.70
     Davidson diagonalization with overlap
     ethr =  1.76E-06,  avg # of iterations =  3.8

     negative rho (up, down):  0.187E-04 0.000E+00

     total cpu time spent up to now is       38.0 secs

     total energy              =     -22.79144963 Ry
     Harris-Foulkes estimate   =     -22.79144885 Ry
     estimated scf accuracy    <       0.00000084 Ry

     iteration #  5     ecut=    70.00 Ry     beta=0.70
     Davidson diagonalization with overlap
     ethr =  1.05E-08,  avg # of iterations =  2.6

     negative rho (up, down):  0.187E-04 0.000E+00

     total cpu time spent up to now is       44.8 secs

     total energy              =     -22.79144996 Ry
     Harris-Foulkes estimate   =     -22.79144995 Ry
     estimated scf accuracy    <       0.00000002 Ry

     iteration #  6     ecut=    70.00 Ry     beta=0.70
     Davidson diagonalization with overlap
     ethr =  3.12E-10,  avg # of iterations =  2.0

     negative rho (up, down):  0.186E-04 0.000E+00

     total cpu time spent up to now is       50.9 secs

     End of self-consistent calculation

          k = 0.0000 0.0000 0.0000 ( 10361 PWs)   bands (ev):

   -22.4921 -10.6023  -6.0254  -6.0254   0.3035   1.0417   1.2090   1.5614

          k = 0.0000 0.1155 0.0000 ( 10315 PWs)   bands (ev):

   -22.2556 -10.3193  -6.9384  -6.4998   0.6254   1.3690   1.5400   1.8906

          k = 0.0000 0.2309 0.0000 ( 10279 PWs)   bands (ev):

   -21.5500  -9.4817  -9.1123  -7.5177   1.5909   2.3481   2.5329   2.8772

          k = 0.0000 0.3464 0.0000 ( 10323 PWs)   bands (ev):

   -20.3880 -11.7243  -8.5085  -8.1359   2.8940   3.1928   4.0082   4.1875

          k = 0.0000 0.4619 0.0000 ( 10348 PWs)   bands (ev):

   -18.8032 -14.3009  -9.1786  -6.4463   0.2226   4.6046   5.4556   6.2612

          k = 0.0000-0.5774 0.0000 ( 10340 PWs)   bands (ev):

   -17.2302 -16.2214  -9.4122  -5.3196  -1.2676   4.5010   8.1869   8.3398

          k = 0.1000 0.1732 0.0000 ( 10288 PWs)   bands (ev):

   -21.7846  -9.7586  -8.2827  -7.4483   1.2697   2.0226   2.2020   2.5487

          k = 0.1000 0.2887 0.0000 ( 10321 PWs)   bands (ev):

   -20.8508 -10.4393  -8.6934  -8.6626   2.5559   3.3174   3.5259   3.8506

          k = 0.1000 0.4041 0.0000 ( 10347 PWs)   bands (ev):

   -19.4755 -12.9484  -9.6112  -7.1128   1.3919   4.4705   5.2761   5.5104

          k = 0.1000-0.6351 0.0000 ( 10377 PWs)   bands (ev):

   -17.7351 -15.3318 -10.0883  -5.4653  -0.8835   5.5376   7.0159   7.8023

          k = 0.2000 0.3464 0.0000 ( 10332 PWs)   bands (ev):

   -19.7031 -11.9060 -10.4565  -7.3457   1.9671   4.1575   4.9305   5.1807

          k = 0.2000-0.6928 0.0000 ( 10327 PWs)   bands (ev):

   -18.1479 -13.9006 -11.5281  -5.6684  -0.2388   6.3681   7.0574   7.4966

          k = 0.2000-0.5774 0.0000 ( 10350 PWs)   bands (ev):

   -16.6245 -15.6598 -11.8316  -4.4572  -1.6467   7.9218   8.4063   8.9787

          k = 0.3000-0.6351 0.0000 ( 10356 PWs)   bands (ev):

   -16.5134 -14.8218 -13.1728  -3.9787  -1.9348   7.8046   8.7516  10.0946

     the Fermi energy is    -2.1186 ev

!    total energy              =     -22.79144997 Ry
     Harris-Foulkes estimate   =     -22.79144997 Ry
     estimated scf accuracy    <          6.2E-10 Ry

     The total energy is the sum of the following terms:

     one-electron contribution =    -353.76086370 Ry
     hartree contribution      =     177.88978844 Ry
     xc contribution           =      -7.02461614 Ry
     ewald contribution        =     160.10424143 Ry
     smearing contrib. (-TS)   =      -0.00000000 Ry

     convergence has been achieved in   6 iterations

     Writing output data file graphene.save

     init_run     :      4.16s CPU      4.32s WALL (       1 calls)
     electrons    :     44.23s CPU     46.52s WALL (       1 calls)

     Called by init_run:
     wfcinit      :      1.46s CPU      1.51s WALL (       1 calls)
     potinit      :      1.20s CPU      1.23s WALL (       1 calls)

     Called by electrons:
     c_bands      :     28.39s CPU     29.70s WALL (       6 calls)
     sum_band     :      9.01s CPU      9.39s WALL (       6 calls)
     v_of_rho     :      3.01s CPU      3.25s WALL (       7 calls)
     newd         :      3.62s CPU      3.94s WALL (       7 calls)
     mix_rho      :      0.45s CPU      0.48s WALL (       6 calls)

     Called by c_bands:
     init_us_2    :      0.41s CPU      0.51s WALL (     182 calls)
     cegterg      :     27.86s CPU     28.99s WALL (      84 calls)

     Called by *egterg:
     h_psi        :     25.72s CPU     26.78s WALL (     506 calls)
     s_psi        :      0.48s CPU      0.48s WALL (     506 calls)
     g_psi        :      0.11s CPU      0.12s WALL (     408 calls)
     cdiaghg      :      0.19s CPU      0.19s WALL (     492 calls)

     Called by h_psi:
     add_vuspsi   :      0.44s CPU      0.45s WALL (     506 calls)

     General routines
     calbec       :      0.79s CPU      0.81s WALL (     590 calls)
     fft          :      3.03s CPU      3.15s WALL (     107 calls)
     ffts         :      0.09s CPU      0.10s WALL (      13 calls)
     fftw         :     17.11s CPU     17.97s WALL (    5102 calls)
     interpolate  :      0.58s CPU      0.59s WALL (      13 calls)
     davcio       :      0.15s CPU      0.21s WALL (     266 calls)

     Parallel routines
     fft_scatter  :     12.41s CPU     13.16s WALL (    5222 calls)

     PWSCF        :    48.69s CPU        51.15s WALL


   This run was terminated on:   1:33: 4  26Jul2015            

=------------------------------------------------------------------------------=
   JOB DONE.
=------------------------------------------------------------------------------=
