
     Program PWSCF v.5.0.2 (svn rev. 9656) starts on 26Jul2015 at  1:33:58 

     This program is part of the open-source Quantum ESPRESSO suite
     for quantum simulation of materials; please cite
         "P. Giannozzi et al., J. Phys.:Condens. Matter 21 395502 (2009);
          URL http://www.quantum-espresso.org", 
     in publications or presentations arising from this work. More details at
     http://www.quantum-espresso.org/quote.php

     Parallel version (MPI), running on     4 processors
     R & G space division:  proc/nbgrp/npool/nimage =       4

     Current dimensions of program PWSCF are:
     Max number of different atomic species (ntypx) = 10
     Max number of k-points (npk) =  40000
     Max angular momentum in pseudopotentials (lmaxx) =  3
     Waiting for input...
     Reading input from standard input
               file C.pbe-rrkjus.UPF: wavefunction(s)  2S 2P renormalized

     Subspace diagonalization in iterative solution of the eigenvalue problem:
     a serial algorithm will be used


     Parallelization info
     --------------------
     sticks:   dense  smooth     PW     G-vecs:    dense   smooth      PW
     Min         211     105     31                59287    20957    3576
     Max         212     106     33                59334    21006    3619
     Sum         847     421    127               237273    83891   14357



     bravais-lattice index     =            0
     lattice parameter (alat)  =       4.6700  a.u.
     unit-cell volume          =    1058.4309 (a.u.)^3
     number of atoms/cell      =            2
     number of atomic types    =            1
     number of electrons       =         8.00
     number of Kohn-Sham states=            8
     kinetic-energy cutoff     =      70.0000  Ry
     charge density cutoff     =     560.0000  Ry
     convergence threshold     =      1.0E-08
     mixing beta               =       0.7000
     number of iterations used =            8  plain     mixing
     Exchange-correlation      =  SLA  PW   PBE  PBE ( 1 4 3 4 0)
     EXX-fraction              =        0.00

     celldm(1)=   4.670000  celldm(2)=   0.000000  celldm(3)=   0.000000
     celldm(4)=   0.000000  celldm(5)=   0.000000  celldm(6)=   0.000000

     crystal axes: (cart. coord. in units of alat)
               a(1) = (   1.000000   0.000000   0.000000 )  
               a(2) = (   0.500000   0.866025   0.000000 )  
               a(3) = (   0.000000   0.000000  12.000000 )  

     reciprocal axes: (cart. coord. in units 2 pi/alat)
               b(1) = (  1.000000 -0.577350  0.000000 )  
               b(2) = (  0.000000  1.154701  0.000000 )  
               b(3) = (  0.000000  0.000000  0.083333 )  


     PseudoPot. # 1 for C  read from file:
     ./C.pbe-rrkjus.UPF
     MD5 check sum: 00fb224312de0c5b6853bd333518df6f
     Pseudo is Ultrasoft, Zval =  4.0
     Generated by new atomic code, or converted to UPF format
     Using radial grid of  627 points,  4 beta functions with: 
                l(1) =   0
                l(2) =   0
                l(3) =   1
                l(4) =   1
     Q(r) pseudized with 0 coefficients 


     atomic species   valence    mass     pseudopotential
        C              4.00    12.00000     C ( 1.00)

     24 Sym. Ops., with inversion, found (12 have fractional translation)



   Cartesian axes

     site n.     atom                  positions (alat units)
         1           C   tau(   1) = (   0.0000000   0.0000000   0.0000000  )
         2           C   tau(   2) = (   1.0000000   0.5773503   0.0000000  )

     number of k points=    14  gaussian smearing, width (Ry)=  0.0010
                       cart. coord. in units 2pi/alat
        k(    1) = (   0.0000000   0.0000000   0.0000000), wk =   0.0200000
        k(    2) = (   0.0000000   0.1154701   0.0000000), wk =   0.1200000
        k(    3) = (   0.0000000   0.2309401   0.0000000), wk =   0.1200000
        k(    4) = (   0.0000000   0.3464102   0.0000000), wk =   0.1200000
        k(    5) = (   0.0000000   0.4618802   0.0000000), wk =   0.1200000
        k(    6) = (   0.0000000  -0.5773503   0.0000000), wk =   0.0600000
        k(    7) = (   0.1000000   0.1732051   0.0000000), wk =   0.1200000
        k(    8) = (   0.1000000   0.2886751   0.0000000), wk =   0.2400000
        k(    9) = (   0.1000000   0.4041452   0.0000000), wk =   0.2400000
        k(   10) = (   0.1000000  -0.6350853   0.0000000), wk =   0.2400000
        k(   11) = (   0.2000000   0.3464102   0.0000000), wk =   0.1200000
        k(   12) = (   0.2000000  -0.6928203   0.0000000), wk =   0.2400000
        k(   13) = (   0.2000000  -0.5773503   0.0000000), wk =   0.1200000
        k(   14) = (   0.3000000  -0.6350853   0.0000000), wk =   0.1200000

     Dense  grid:   237273 G-vectors     FFT dimensions: (  36,  36, 432)

     Smooth grid:    83891 G-vectors     FFT dimensions: (  25,  25, 300)

     Largest allocated arrays     est. size (Mb)     dimensions
        Kohn-Sham Wavefunctions         0.33 Mb     (   2713,    8)
        NL pseudopotentials             0.66 Mb     (   2713,   16)
        Each V/rho on FFT grid          2.14 Mb     ( 139968)
        Each G-vector array             0.45 Mb     (  59332)
        G-vector shells                 0.14 Mb     (  17833)
     Largest temporary arrays     est. size (Mb)     dimensions
        Auxiliary wavefunctions         1.32 Mb     (   2713,   32)
        Each subspace H/S matrix        0.02 Mb     (  32,  32)
        Each <psi_i|beta_j> matrix      0.00 Mb     (     16,    8)
        Arrays for rho mixing          17.09 Mb     ( 139968,   8)

     Initial potential from superposition of free atoms

     starting charge    7.99989, renormalised to    8.00000

     negative rho (up, down):  0.250E-04 0.000E+00
     Starting wfc are    8 randomized atomic wfcs

     total cpu time spent up to now is        4.5 secs

     per-process dynamical memory:    37.0 Mb

     Self-consistent Calculation

     iteration #  1     ecut=    70.00 Ry     beta=0.70
     Davidson diagonalization with overlap
     ethr =  1.00E-02,  avg # of iterations =  5.2

     negative rho (up, down):  0.176E-04 0.000E+00

     total cpu time spent up to now is       12.9 secs

     total energy              =     -22.76104244 Ry
     Harris-Foulkes estimate   =     -22.88067068 Ry
     estimated scf accuracy    <       0.19940507 Ry

     iteration #  2     ecut=    70.00 Ry     beta=0.70
     Davidson diagonalization with overlap
     ethr =  2.49E-03,  avg # of iterations =  5.6

     negative rho (up, down):  0.166E-04 0.000E+00

     total cpu time spent up to now is       20.3 secs

     total energy              =     -22.79099070 Ry
     Harris-Foulkes estimate   =     -22.79112286 Ry
     estimated scf accuracy    <       0.00245998 Ry

     iteration #  3     ecut=    70.00 Ry     beta=0.70
     Davidson diagonalization with overlap
     ethr =  3.07E-05,  avg # of iterations = 10.2

     negative rho (up, down):  0.186E-04 0.000E+00

     total cpu time spent up to now is       30.3 secs

     total energy              =     -22.79131651 Ry
     Harris-Foulkes estimate   =     -22.79128787 Ry
     estimated scf accuracy    <       0.00014008 Ry

     iteration #  4     ecut=    70.00 Ry     beta=0.70
     Davidson diagonalization with overlap
     ethr =  1.75E-06,  avg # of iterations =  4.8

     negative rho (up, down):  0.188E-04 0.000E+00

     total cpu time spent up to now is       37.5 secs

     total energy              =     -22.79132193 Ry
     Harris-Foulkes estimate   =     -22.79132120 Ry
     estimated scf accuracy    <       0.00000083 Ry

     iteration #  5     ecut=    70.00 Ry     beta=0.70
     Davidson diagonalization with overlap
     ethr =  1.03E-08,  avg # of iterations =  2.5

     negative rho (up, down):  0.187E-04 0.000E+00

     total cpu time spent up to now is       44.3 secs

     total energy              =     -22.79132226 Ry
     Harris-Foulkes estimate   =     -22.79132225 Ry
     estimated scf accuracy    <       0.00000002 Ry

     iteration #  6     ecut=    70.00 Ry     beta=0.70
     Davidson diagonalization with overlap
     ethr =  2.94E-10,  avg # of iterations =  2.0

     negative rho (up, down):  0.187E-04 0.000E+00

     total cpu time spent up to now is       50.3 secs

     End of self-consistent calculation

          k = 0.0000 0.0000 0.0000 ( 10493 PWs)   bands (ev):

   -22.4380 -10.5650  -6.0783  -6.0783   0.2938   1.0293   1.1960   1.5445

          k = 0.0000 0.1155 0.0000 ( 10475 PWs)   bands (ev):

   -22.2033 -10.2849  -6.9870  -6.5464   0.6131   1.3538   1.5241   1.8710

          k = 0.0000 0.2309 0.0000 ( 10451 PWs)   bands (ev):

   -21.5030  -9.4562  -9.1479  -7.5517   1.5703   2.3243   2.5086   2.8490

          k = 0.0000 0.3464 0.0000 ( 10465 PWs)   bands (ev):

   -20.3502 -11.7420  -8.5311  -8.1250   2.7828   3.1584   3.9676   4.1489

          k = 0.0000 0.4619 0.0000 ( 10468 PWs)   bands (ev):

   -18.7791 -14.2984  -9.1938  -6.4552   0.1461   4.4342   5.3985   6.2023

          k = 0.0000-0.5774 0.0000 ( 10484 PWs)   bands (ev):

   -17.2345 -16.1882  -9.4249  -5.3436  -1.3228   4.3254   8.1072   8.2611

          k = 0.1000 0.1732 0.0000 ( 10431 PWs)   bands (ev):

   -21.7358  -9.7302  -8.3254  -7.4828   1.2518   2.0017   2.1805   2.5234

          k = 0.1000 0.2887 0.0000 ( 10456 PWs)   bands (ev):

   -20.8092 -10.4685  -8.7147  -8.6459   2.5271   3.2839   3.4930   3.8039

          k = 0.1000 0.4041 0.0000 ( 10480 PWs)   bands (ev):

   -19.4451 -12.9584  -9.6242  -7.1135   1.2970   4.4247   5.2258   5.4595

          k = 0.1000-0.6351 0.0000 ( 10502 PWs)   bands (ev):

   -17.7230 -15.3188 -10.0969  -5.4863  -0.9470   5.3575   6.9473   7.7279

          k = 0.2000 0.3464 0.0000 ( 10470 PWs)   bands (ev):

   -19.6707 -11.9322 -10.4566  -7.3435   1.8607   4.1149   4.8838   5.1338

          k = 0.2000-0.6928 0.0000 ( 10454 PWs)   bands (ev):

   -18.1292 -13.9090 -11.5215  -5.6857  -0.3170   6.3056   6.9897   7.4298

          k = 0.2000-0.5774 0.0000 ( 10452 PWs)   bands (ev):

   -16.6311 -15.6393 -11.8246  -4.4903  -1.7057   7.7275   8.3224   8.8871

          k = 0.3000-0.6351 0.0000 ( 10462 PWs)   bands (ev):

   -16.5120 -14.8355 -13.1377  -4.0161  -1.9952   7.7329   8.6625   9.9091

     the Fermi energy is    -2.2143 ev

!    total energy              =     -22.79132226 Ry
     Harris-Foulkes estimate   =     -22.79132226 Ry
     estimated scf accuracy    <          4.3E-10 Ry

     The total energy is the sum of the following terms:

     one-electron contribution =    -352.40179821 Ry
     hartree contribution      =     177.19808303 Ry
     xc contribution           =      -7.00617725 Ry
     ewald contribution        =     159.41857016 Ry
     smearing contrib. (-TS)   =      -0.00000000 Ry

     convergence has been achieved in   6 iterations

     Writing output data file graphene.save

     init_run     :      4.24s CPU      4.44s WALL (       1 calls)
     electrons    :     43.74s CPU     45.84s WALL (       1 calls)

     Called by init_run:
     wfcinit      :      1.42s CPU      1.51s WALL (       1 calls)
     potinit      :      1.21s CPU      1.27s WALL (       1 calls)

     Called by electrons:
     c_bands      :     27.92s CPU     29.18s WALL (       6 calls)
     sum_band     :      8.83s CPU      9.17s WALL (       6 calls)
     v_of_rho     :      3.09s CPU      3.27s WALL (       7 calls)
     newd         :      3.70s CPU      3.94s WALL (       7 calls)
     mix_rho      :      0.44s CPU      0.47s WALL (       6 calls)

     Called by c_bands:
     init_us_2    :      0.46s CPU      0.54s WALL (     182 calls)
     cegterg      :     27.35s CPU     28.46s WALL (      84 calls)

     Called by *egterg:
     h_psi        :     25.02s CPU     26.12s WALL (     523 calls)
     s_psi        :      0.47s CPU      0.47s WALL (     523 calls)
     g_psi        :      0.12s CPU      0.13s WALL (     425 calls)
     cdiaghg      :      0.22s CPU      0.22s WALL (     509 calls)

     Called by h_psi:
     add_vuspsi   :      0.44s CPU      0.46s WALL (     523 calls)

     General routines
     calbec       :      0.82s CPU      0.84s WALL (     607 calls)
     fft          :      2.97s CPU      3.13s WALL (     107 calls)
     ffts         :      0.09s CPU      0.09s WALL (      13 calls)
     fftw         :     17.07s CPU     17.94s WALL (    5116 calls)
     interpolate  :      0.57s CPU      0.58s WALL (      13 calls)
     davcio       :      0.15s CPU      0.19s WALL (     266 calls)

     Parallel routines
     fft_scatter  :     12.26s CPU     13.12s WALL (    5236 calls)

     PWSCF        :    48.26s CPU        50.75s WALL


   This run was terminated on:   1:34:48  26Jul2015            

=------------------------------------------------------------------------------=
   JOB DONE.
=------------------------------------------------------------------------------=
