
     Program PWSCF v.5.0.2 (svn rev. 9656) starts on 12Jul2015 at  2:18:30 

     This program is part of the open-source Quantum ESPRESSO suite
     for quantum simulation of materials; please cite
         "P. Giannozzi et al., J. Phys.:Condens. Matter 21 395502 (2009);
          URL http://www.quantum-espresso.org", 
     in publications or presentations arising from this work. More details at
     http://www.quantum-espresso.org/quote.php

     Parallel version (MPI), running on     4 processors
     R & G space division:  proc/nbgrp/npool/nimage =       4

     Current dimensions of program PWSCF are:
     Max number of different atomic species (ntypx) = 10
     Max number of k-points (npk) =  40000
     Max angular momentum in pseudopotentials (lmaxx) =  3
     Waiting for input...
     Reading input from standard input
               file Al.pbe-n-kjpaw_psl.0.1.UPF: wavefunction(s)  3S renormalized

     Subspace diagonalization in iterative solution of the eigenvalue problem:
     a serial algorithm will be used


     Parallelization info
     --------------------
     sticks:   dense  smooth     PW     G-vecs:    dense   smooth      PW
     Min         148     148     49                 2429     2429     451
     Max         149     149     50                 2431     2431     453
     Sum         595     595    199                 9721     9721    1807



     bravais-lattice index     =            2
     lattice parameter (alat)  =       7.6300  a.u.
     unit-cell volume          =     111.0487 (a.u.)^3
     number of atoms/cell      =            1
     number of atomic types    =            1
     number of electrons       =         3.00
     number of Kohn-Sham states=            6
     kinetic-energy cutoff     =      75.0000  Ry
     charge density cutoff     =     300.0000  Ry
     convergence threshold     =      1.0E-07
     mixing beta               =       0.7000
     number of iterations used =            8  plain     mixing
     Exchange-correlation      =  SLA  PW   PBX  PBC ( 1 4 3 4 0)
     EXX-fraction              =        0.00

     celldm(1)=   7.630000  celldm(2)=   0.000000  celldm(3)=   0.000000
     celldm(4)=   0.000000  celldm(5)=   0.000000  celldm(6)=   0.000000

     crystal axes: (cart. coord. in units of alat)
               a(1) = (  -0.500000   0.000000   0.500000 )  
               a(2) = (   0.000000   0.500000   0.500000 )  
               a(3) = (  -0.500000   0.500000   0.000000 )  

     reciprocal axes: (cart. coord. in units 2 pi/alat)
               b(1) = ( -1.000000 -1.000000  1.000000 )  
               b(2) = (  1.000000  1.000000  1.000000 )  
               b(3) = ( -1.000000  1.000000 -1.000000 )  


     PseudoPot. # 1 for Al read from file:
     ./Al.pbe-n-kjpaw_psl.0.1.UPF
     MD5 check sum: 023d9faf819c76fc4df1f064efe7b7b2
     Pseudo is Projector augmented-wave + core cor, Zval =  3.0
     Generated using "atomic" code by A. Dal Corso  v.5.0.2 svn rev. 9415
     Shape of augmentation charge: PSQ
     Using radial grid of 1135 points,  4 beta functions with: 
                l(1) =   0
                l(2) =   0
                l(3) =   1
                l(4) =   1
     Q(r) pseudized with 0 coefficients 


     atomic species   valence    mass     pseudopotential
        Al             3.00    26.98154     Al( 1.00)

     48 Sym. Ops., with inversion, found



   Cartesian axes

     site n.     atom                  positions (alat units)
         1           Al  tau(   1) = (   0.0000000   0.0000000   0.0000000  )

     number of k points=   120  gaussian smearing, width (Ry)=  0.0030

     Number of k-points >= 100: set verbosity='high' to print them.

     Dense  grid:     9721 G-vectors     FFT dimensions: (  30,  30,  30)

     Largest allocated arrays     est. size (Mb)     dimensions
        Kohn-Sham Wavefunctions         0.03 Mb     (    312,    6)
        NL pseudopotentials             0.04 Mb     (    312,    8)
        Each V/rho on FFT grid          0.11 Mb     (   7200)
        Each G-vector array             0.02 Mb     (   2429)
        G-vector shells                 0.00 Mb     (    147)
     Largest temporary arrays     est. size (Mb)     dimensions
        Auxiliary wavefunctions         0.11 Mb     (    312,   24)
        Each subspace H/S matrix        0.01 Mb     (  24,  24)
        Each <psi_i|beta_j> matrix      0.00 Mb     (      8,    6)
        Arrays for rho mixing           0.88 Mb     (   7200,   8)

     Check: negative/imaginary core charge=   -0.000002    0.000000

     Initial potential from superposition of free atoms

     starting charge    2.99771, renormalised to    3.00000
     Starting wfc are    4 randomized atomic wfcs
     Checking if some PAW data can be deallocated... 

     total cpu time spent up to now is        2.1 secs

     per-process dynamical memory:     9.4 Mb

     Self-consistent Calculation

     iteration #  1     ecut=    75.00 Ry     beta=0.70
     Davidson diagonalization with overlap
     ethr =  1.00E-02,  avg # of iterations =  4.8

     Threshold (ethr) on eigenvalues was too large:
     Diagonalizing with lowered threshold

     Davidson diagonalization with overlap
     ethr =  1.97E-04,  avg # of iterations =  2.2

     total cpu time spent up to now is       11.5 secs

     total energy              =     -39.50302835 Ry
     Harris-Foulkes estimate   =     -39.50444114 Ry
     estimated scf accuracy    <       0.00560096 Ry

     iteration #  2     ecut=    75.00 Ry     beta=0.70
     Davidson diagonalization with overlap
     ethr =  1.87E-04,  avg # of iterations =  1.1

     total cpu time spent up to now is       14.7 secs

     total energy              =     -39.50299140 Ry
     Harris-Foulkes estimate   =     -39.50309795 Ry
     estimated scf accuracy    <       0.00040589 Ry

     iteration #  3     ecut=    75.00 Ry     beta=0.70
     Davidson diagonalization with overlap
     ethr =  1.35E-05,  avg # of iterations =  1.8

     total cpu time spent up to now is       18.0 secs

     total energy              =     -39.50301280 Ry
     Harris-Foulkes estimate   =     -39.50301336 Ry
     estimated scf accuracy    <       0.00000137 Ry

     iteration #  4     ecut=    75.00 Ry     beta=0.70
     Davidson diagonalization with overlap
     ethr =  4.55E-08,  avg # of iterations =  3.2

     total cpu time spent up to now is       22.2 secs

     total energy              =     -39.50301417 Ry
     Harris-Foulkes estimate   =     -39.50301417 Ry
     estimated scf accuracy    <       0.00000011 Ry

     iteration #  5     ecut=    75.00 Ry     beta=0.70
     Davidson diagonalization with overlap
     ethr =  3.60E-09,  avg # of iterations =  1.9

     total cpu time spent up to now is       25.7 secs

     total energy              =     -39.50301411 Ry
     Harris-Foulkes estimate   =     -39.50301419 Ry
     estimated scf accuracy    <       0.00000022 Ry

     iteration #  6     ecut=    75.00 Ry     beta=0.70
     Davidson diagonalization with overlap
     ethr =  3.60E-09,  avg # of iterations =  1.0

     total cpu time spent up to now is       29.0 secs

     End of self-consistent calculation

     Number of k-points >= 100: set verbosity='high' to print the bands.

     the Fermi energy is     8.0825 ev

!    total energy              =     -39.50301412 Ry
     Harris-Foulkes estimate   =     -39.50301412 Ry
     estimated scf accuracy    <          8.0E-11 Ry

     total all-electron energy =      -485.645796 Ry

     The total energy is the sum of the following terms:

     one-electron contribution =       3.16810913 Ry
     hartree contribution      =       0.00566109 Ry
     xc contribution           =      -3.03142665 Ry
     ewald contribution        =      -5.40809419 Ry
     one-center paw contrib.   =     -34.23723816 Ry
     smearing contrib. (-TS)   =      -0.00002534 Ry

     convergence has been achieved in   6 iterations

     Writing output data file Al.save

     init_run     :      1.26s CPU      1.67s WALL (       1 calls)
     electrons    :     20.47s CPU     26.87s WALL (       1 calls)

     Called by init_run:
     wfcinit      :      0.89s CPU      1.18s WALL (       1 calls)
     potinit      :      0.08s CPU      0.10s WALL (       1 calls)

     Called by electrons:
     c_bands      :     16.62s CPU     21.80s WALL (       7 calls)
     sum_band     :      3.27s CPU      4.34s WALL (       7 calls)
     v_of_rho     :      0.13s CPU      0.15s WALL (       7 calls)
     newd         :      0.04s CPU      0.04s WALL (       7 calls)
     mix_rho      :      0.08s CPU      0.11s WALL (       7 calls)

     Called by c_bands:
     init_us_2    :      0.40s CPU      0.45s WALL (    1800 calls)
     cegterg      :     16.25s CPU     21.33s WALL (     840 calls)

     Called by *egterg:
     h_psi        :     15.11s CPU     19.84s WALL (    2872 calls)
     s_psi        :      0.07s CPU      0.11s WALL (    2872 calls)
     g_psi        :      0.09s CPU      0.09s WALL (    1912 calls)
     cdiaghg      :      0.86s CPU      0.99s WALL (    2632 calls)

     Called by h_psi:
     add_vuspsi   :      0.10s CPU      0.14s WALL (    2872 calls)

     General routines
     calbec       :      0.32s CPU      0.53s WALL (    3712 calls)
     fft          :      0.07s CPU      0.10s WALL (      93 calls)
     fftw         :     16.75s CPU     21.76s WALL (   31754 calls)
     davcio       :      0.05s CPU      0.09s WALL (    2640 calls)

     Parallel routines
     fft_scatter  :      3.63s CPU      7.54s WALL (   31847 calls)

     PAW routines
     PAW_pot      :      0.38s CPU      0.48s WALL (       7 calls)
     PAW_ddot     :      0.07s CPU      0.10s WALL (      37 calls)
     PAW_symme    :      0.00s CPU      0.00s WALL (      14 calls)

     PWSCF        :    22.67s CPU        29.59s WALL


   This run was terminated on:   2:19: 0  12Jul2015            

=------------------------------------------------------------------------------=
   JOB DONE.
=------------------------------------------------------------------------------=
