
     Program PWSCF v.5.0.2 (svn rev. 9656) starts on 12Jul2015 at  1:32: 6 

     This program is part of the open-source Quantum ESPRESSO suite
     for quantum simulation of materials; please cite
         "P. Giannozzi et al., J. Phys.:Condens. Matter 21 395502 (2009);
          URL http://www.quantum-espresso.org", 
     in publications or presentations arising from this work. More details at
     http://www.quantum-espresso.org/quote.php

     Parallel version (MPI), running on     4 processors
     R & G space division:  proc/nbgrp/npool/nimage =       4

     Current dimensions of program PWSCF are:
     Max number of different atomic species (ntypx) = 10
     Max number of k-points (npk) =  40000
     Max angular momentum in pseudopotentials (lmaxx) =  3
     Waiting for input...
     Reading input from standard input
               file Al.pbe-n-kjpaw_psl.0.1.UPF: wavefunction(s)  3S renormalized

     Subspace diagonalization in iterative solution of the eigenvalue problem:
     a serial algorithm will be used


     Parallelization info
     --------------------
     sticks:   dense  smooth     PW     G-vecs:    dense   smooth      PW
     Min         108     108     37                 1520     1520     284
     Max         111     111     38                 1521     1521     285
     Sum         439     439    151                 6081     6081    1139



     bravais-lattice index     =            2
     lattice parameter (alat)  =       7.3000  a.u.
     unit-cell volume          =      97.2542 (a.u.)^3
     number of atoms/cell      =            1
     number of atomic types    =            1
     number of electrons       =         3.00
     number of Kohn-Sham states=            6
     kinetic-energy cutoff     =      60.0000  Ry
     charge density cutoff     =     240.0000  Ry
     convergence threshold     =      1.0E-07
     mixing beta               =       0.7000
     number of iterations used =            8  plain     mixing
     Exchange-correlation      =  SLA  PW   PBX  PBC ( 1 4 3 4 0)
     EXX-fraction              =        0.00

     celldm(1)=   7.300000  celldm(2)=   0.000000  celldm(3)=   0.000000
     celldm(4)=   0.000000  celldm(5)=   0.000000  celldm(6)=   0.000000

     crystal axes: (cart. coord. in units of alat)
               a(1) = (  -0.500000   0.000000   0.500000 )  
               a(2) = (   0.000000   0.500000   0.500000 )  
               a(3) = (  -0.500000   0.500000   0.000000 )  

     reciprocal axes: (cart. coord. in units 2 pi/alat)
               b(1) = ( -1.000000 -1.000000  1.000000 )  
               b(2) = (  1.000000  1.000000  1.000000 )  
               b(3) = ( -1.000000  1.000000 -1.000000 )  


     PseudoPot. # 1 for Al read from file:
     ./Al.pbe-n-kjpaw_psl.0.1.UPF
     MD5 check sum: 023d9faf819c76fc4df1f064efe7b7b2
     Pseudo is Projector augmented-wave + core cor, Zval =  3.0
     Generated using "atomic" code by A. Dal Corso  v.5.0.2 svn rev. 9415
     Shape of augmentation charge: PSQ
     Using radial grid of 1135 points,  4 beta functions with: 
                l(1) =   0
                l(2) =   0
                l(3) =   1
                l(4) =   1
     Q(r) pseudized with 0 coefficients 


     atomic species   valence    mass     pseudopotential
        Al             3.00    26.98154     Al( 1.00)

     48 Sym. Ops., with inversion, found



   Cartesian axes

     site n.     atom                  positions (alat units)
         1           Al  tau(   1) = (   0.0000000   0.0000000   0.0000000  )

     number of k points=    84  gaussian smearing, width (Ry)=  0.0030
                       cart. coord. in units 2pi/alat
        k(    1) = (   0.0000000   0.0000000   0.0000000), wk =   0.0009103
        k(    2) = (  -0.0769231   0.0769231  -0.0769231), wk =   0.0072827
        k(    3) = (  -0.1538462   0.1538462  -0.1538462), wk =   0.0072827
        k(    4) = (  -0.2307692   0.2307692  -0.2307692), wk =   0.0072827
        k(    5) = (  -0.3076923   0.3076923  -0.3076923), wk =   0.0072827
        k(    6) = (  -0.3846154   0.3846154  -0.3846154), wk =   0.0072827
        k(    7) = (  -0.4615385   0.4615385  -0.4615385), wk =   0.0072827
        k(    8) = (   0.0000000   0.1538462   0.0000000), wk =   0.0054620
        k(    9) = (  -0.0769231   0.2307692  -0.0769231), wk =   0.0218480
        k(   10) = (  -0.1538462   0.3076923  -0.1538462), wk =   0.0218480
        k(   11) = (  -0.2307692   0.3846154  -0.2307692), wk =   0.0218480
        k(   12) = (  -0.3076923   0.4615385  -0.3076923), wk =   0.0218480
        k(   13) = (  -0.3846154   0.5384615  -0.3846154), wk =   0.0218480
        k(   14) = (   0.5384615  -0.3846154   0.5384615), wk =   0.0218480
        k(   15) = (   0.4615385  -0.3076923   0.4615385), wk =   0.0218480
        k(   16) = (   0.3846154  -0.2307692   0.3846154), wk =   0.0218480
        k(   17) = (   0.3076923  -0.1538462   0.3076923), wk =   0.0218480
        k(   18) = (   0.2307692  -0.0769231   0.2307692), wk =   0.0218480
        k(   19) = (   0.1538462   0.0000000   0.1538462), wk =   0.0109240
        k(   20) = (   0.0000000   0.3076923   0.0000000), wk =   0.0054620
        k(   21) = (  -0.0769231   0.3846154  -0.0769231), wk =   0.0218480
        k(   22) = (  -0.1538462   0.4615385  -0.1538462), wk =   0.0218480
        k(   23) = (  -0.2307692   0.5384615  -0.2307692), wk =   0.0218480
        k(   24) = (  -0.3076923   0.6153846  -0.3076923), wk =   0.0218480
        k(   25) = (   0.6153846  -0.3076923   0.6153846), wk =   0.0218480
        k(   26) = (   0.5384615  -0.2307692   0.5384615), wk =   0.0218480
        k(   27) = (   0.4615385  -0.1538462   0.4615385), wk =   0.0218480
        k(   28) = (   0.3846154  -0.0769231   0.3846154), wk =   0.0218480
        k(   29) = (   0.3076923   0.0000000   0.3076923), wk =   0.0109240
        k(   30) = (   0.0000000   0.4615385   0.0000000), wk =   0.0054620
        k(   31) = (  -0.0769231   0.5384615  -0.0769231), wk =   0.0218480
        k(   32) = (  -0.1538462   0.6153846  -0.1538462), wk =   0.0218480
        k(   33) = (  -0.2307692   0.6923077  -0.2307692), wk =   0.0218480
        k(   34) = (   0.6923077  -0.2307692   0.6923077), wk =   0.0218480
        k(   35) = (   0.6153846  -0.1538462   0.6153846), wk =   0.0218480
        k(   36) = (   0.5384615  -0.0769231   0.5384615), wk =   0.0218480
        k(   37) = (   0.4615385   0.0000000   0.4615385), wk =   0.0109240
        k(   38) = (   0.0000000   0.6153846   0.0000000), wk =   0.0054620
        k(   39) = (  -0.0769231   0.6923077  -0.0769231), wk =   0.0218480
        k(   40) = (  -0.1538462   0.7692308  -0.1538462), wk =   0.0218480
        k(   41) = (   0.7692308  -0.1538462   0.7692308), wk =   0.0218480
        k(   42) = (   0.6923077  -0.0769231   0.6923077), wk =   0.0218480
        k(   43) = (   0.6153846   0.0000000   0.6153846), wk =   0.0109240
        k(   44) = (   0.0000000   0.7692308   0.0000000), wk =   0.0054620
        k(   45) = (  -0.0769231   0.8461538  -0.0769231), wk =   0.0218480
        k(   46) = (   0.8461538  -0.0769231   0.8461538), wk =   0.0218480
        k(   47) = (   0.7692308   0.0000000   0.7692308), wk =   0.0109240
        k(   48) = (   0.0000000   0.9230769   0.0000000), wk =   0.0054620
        k(   49) = (   0.9230769   0.0000000   0.9230769), wk =   0.0109240
        k(   50) = (  -0.1538462   0.3076923   0.0000000), wk =   0.0218480
        k(   51) = (  -0.2307692   0.3846154  -0.0769231), wk =   0.0436959
        k(   52) = (  -0.3076923   0.4615385  -0.1538462), wk =   0.0436959
        k(   53) = (  -0.3846154   0.5384615  -0.2307692), wk =   0.0436959
        k(   54) = (   0.5384615  -0.3846154   0.6923077), wk =   0.0436959
        k(   55) = (  -0.1538462   0.4615385   0.0000000), wk =   0.0218480
        k(   56) = (  -0.2307692   0.5384615  -0.0769231), wk =   0.0436959
        k(   57) = (  -0.3076923   0.6153846  -0.1538462), wk =   0.0436959
        k(   58) = (   0.6153846  -0.3076923   0.7692308), wk =   0.0436959
        k(   59) = (   0.5384615  -0.2307692   0.6923077), wk =   0.0436959
        k(   60) = (   0.4615385  -0.1538462   0.6153846), wk =   0.0436959
        k(   61) = (   0.3846154  -0.0769231   0.5384615), wk =   0.0436959
        k(   62) = (   0.3076923   0.0000000   0.4615385), wk =   0.0218480
        k(   63) = (  -0.1538462   0.6153846   0.0000000), wk =   0.0218480
        k(   64) = (  -0.2307692   0.6923077  -0.0769231), wk =   0.0436959
        k(   65) = (   0.6923077  -0.2307692   0.8461538), wk =   0.0436959
        k(   66) = (   0.6153846  -0.1538462   0.7692308), wk =   0.0436959
        k(   67) = (   0.5384615  -0.0769231   0.6923077), wk =   0.0436959
        k(   68) = (   0.4615385   0.0000000   0.6153846), wk =   0.0218480
        k(   69) = (  -0.1538462   0.7692308   0.0000000), wk =   0.0218480
        k(   70) = (   0.7692308  -0.1538462   0.9230769), wk =   0.0436959
        k(   71) = (   0.6923077  -0.0769231   0.8461538), wk =   0.0436959
        k(   72) = (   0.6153846   0.0000000   0.7692308), wk =   0.0218480
        k(   73) = (   0.8461538  -0.0769231   1.0000000), wk =   0.0218480
        k(   74) = (   0.7692308   0.0000000   0.9230769), wk =   0.0218480
        k(   75) = (  -0.3076923   0.6153846   0.0000000), wk =   0.0218480
        k(   76) = (   0.6153846  -0.3076923   0.9230769), wk =   0.0436959
        k(   77) = (   0.5384615  -0.2307692   0.8461538), wk =   0.0436959
        k(   78) = (   0.6923077  -0.2307692   1.0000000), wk =   0.0218480
        k(   79) = (   0.6153846  -0.1538462   0.9230769), wk =   0.0436959
        k(   80) = (   0.5384615  -0.0769231   0.8461538), wk =   0.0436959
        k(   81) = (   0.4615385   0.0000000   0.7692308), wk =   0.0218480
        k(   82) = (   0.6923077  -0.0769231   1.0000000), wk =   0.0218480
        k(   83) = (   0.6153846   0.0000000   0.9230769), wk =   0.0218480
        k(   84) = (   0.5384615  -0.0769231   1.0000000), wk =   0.0218480

     Dense  grid:     6081 G-vectors     FFT dimensions: (  25,  25,  25)

     Largest allocated arrays     est. size (Mb)     dimensions
        Kohn-Sham Wavefunctions         0.02 Mb     (    191,    6)
        NL pseudopotentials             0.02 Mb     (    191,    8)
        Each V/rho on FFT grid          0.07 Mb     (   4375)
        Each G-vector array             0.01 Mb     (   1521)
        G-vector shells                 0.00 Mb     (    109)
     Largest temporary arrays     est. size (Mb)     dimensions
        Auxiliary wavefunctions         0.07 Mb     (    191,   24)
        Each subspace H/S matrix        0.01 Mb     (  24,  24)
        Each <psi_i|beta_j> matrix      0.00 Mb     (      8,    6)
        Arrays for rho mixing           0.53 Mb     (   4375,   8)

     Initial potential from superposition of free atoms

     starting charge    2.99771, renormalised to    3.00000
     Starting wfc are    4 randomized atomic wfcs
     Checking if some PAW data can be deallocated... 

     total cpu time spent up to now is        0.9 secs

     per-process dynamical memory:     8.9 Mb

     Self-consistent Calculation

     iteration #  1     ecut=    60.00 Ry     beta=0.70
     Davidson diagonalization with overlap
     ethr =  1.00E-02,  avg # of iterations =  4.9

     Threshold (ethr) on eigenvalues was too large:
     Diagonalizing with lowered threshold

     Davidson diagonalization with overlap
     ethr =  1.93E-04,  avg # of iterations =  2.1

     total cpu time spent up to now is        2.6 secs

     total energy              =     -39.49702264 Ry
     Harris-Foulkes estimate   =     -39.49832238 Ry
     estimated scf accuracy    <       0.00552322 Ry

     iteration #  2     ecut=    60.00 Ry     beta=0.70
     Davidson diagonalization with overlap
     ethr =  1.84E-04,  avg # of iterations =  1.1

     total cpu time spent up to now is        3.1 secs

     total energy              =     -39.49696199 Ry
     Harris-Foulkes estimate   =     -39.49707003 Ry
     estimated scf accuracy    <       0.00042870 Ry

     iteration #  3     ecut=    60.00 Ry     beta=0.70
     Davidson diagonalization with overlap
     ethr =  1.43E-05,  avg # of iterations =  1.7

     total cpu time spent up to now is        3.7 secs

     total energy              =     -39.49697523 Ry
     Harris-Foulkes estimate   =     -39.49697553 Ry
     estimated scf accuracy    <       0.00000082 Ry

     iteration #  4     ecut=    60.00 Ry     beta=0.70
     Davidson diagonalization with overlap
     ethr =  2.73E-08,  avg # of iterations =  3.0

     total cpu time spent up to now is        4.4 secs

     End of self-consistent calculation

          k = 0.0000 0.0000 0.0000 (   749 PWs)   bands (ev):

    -2.7324  22.7820  22.7820  22.7820  25.3141  25.3141

          k =-0.0769 0.0769-0.0769 (   749 PWs)   bands (ev):

    -2.5565  20.4249  22.4034  22.4034  25.6807  25.9760

          k =-0.1538 0.1538-0.1538 (   767 PWs)   bands (ev):

    -2.0304  17.0982  21.7982  21.7982  25.4020  27.2133

          k =-0.2308 0.2308-0.2308 (   772 PWs)   bands (ev):

    -1.1585  13.8716  21.3478  21.3478  25.0841  25.8873

          k =-0.3077 0.3077-0.3077 (   769 PWs)   bands (ev):

     0.0520  10.8652  21.1361  21.1361  24.4312  24.4312

          k =-0.3846 0.3846-0.3846 (   763 PWs)   bands (ev):

     1.5903   8.1210  21.1768  21.1768  23.2534  23.2534

          k =-0.4615 0.4615-0.4615 (   766 PWs)   bands (ev):

     3.4289   5.6776  21.4152  21.4152  22.4418  22.4418

          k = 0.0000 0.1538 0.0000 (   753 PWs)   bands (ev):

    -2.4980  21.3657  21.3796  21.3796  24.7558  27.0715

          k =-0.0769 0.2308-0.0769 (   765 PWs)   bands (ev):

    -2.0888  18.2661  20.5336  21.6729  25.0360  25.8279

          k =-0.1538 0.3077-0.1538 (   767 PWs)   bands (ev):

    -1.3324  15.0346  19.9415  21.3957  23.9946  26.4996

          k =-0.2308 0.3846-0.2308 (   772 PWs)   bands (ev):

    -0.2352  11.9684  19.6232  21.0744  22.4802  26.6925

          k =-0.3077 0.4615-0.3077 (   766 PWs)   bands (ev):

     1.1935   9.1432  19.5864  20.5862  21.6361  25.4259

          k =-0.3846 0.5385-0.3846 (   766 PWs)   bands (ev):

     2.9365   6.5976  19.7481  19.8353  21.7121  24.4181

          k = 0.5385-0.3846 0.5385 (   772 PWs)   bands (ev):

     4.2009   5.1320  19.0481  20.3729  22.2403  23.6878

          k = 0.4615-0.3077 0.4615 (   765 PWs)   bands (ev):

     2.3228   7.4113  18.6171  21.1990  23.0905  23.2402

          k = 0.3846-0.2308 0.3846 (   769 PWs)   bands (ev):

     0.6812  10.0523  18.4780  22.2866  23.0959  24.2253

          k = 0.3077-0.1538 0.3077 (   770 PWs)   bands (ev):

    -0.6383  12.9552  18.6391  23.0167  23.8455  25.5759

          k = 0.2308-0.0769 0.2308 (   772 PWs)   bands (ev):

    -1.6228  16.0548  19.1201  23.2739  25.4819  26.2803

          k = 0.1538 0.0000 0.1538 (   765 PWs)   bands (ev):

    -2.2640  18.9751  20.1768  23.2392  25.6360  26.2662

          k = 0.0000 0.3077 0.0000 (   769 PWs)   bands (ev):

    -1.7973  19.2802  19.5390  19.5390  23.1399  23.9900

          k =-0.0769 0.3846-0.0769 (   771 PWs)   bands (ev):

    -1.1585  16.3890  18.8275  19.9396  21.5770  23.8040

          k =-0.1538 0.4615-0.1538 (   766 PWs)   bands (ev):

    -0.1778  13.3362  18.4029  19.3911  20.4380  25.2940

          k =-0.2308 0.5385-0.2308 (   765 PWs)   bands (ev):

     1.1364  10.4615  18.1594  18.2667  20.2054  27.4136

          k =-0.3077 0.6154-0.3077 (   766 PWs)   bands (ev):

     2.7704   7.8384  17.0443  18.4208  20.3751  26.8178

          k = 0.6154-0.3077 0.6154 (   762 PWs)   bands (ev):

     4.6342   5.5755  16.1999  18.8677  20.8693  25.9945

          k = 0.5385-0.2308 0.5385 (   763 PWs)   bands (ev):

     3.3822   7.0208  15.6588  19.6102  21.6766  25.4361

          k = 0.4615-0.1538 0.4615 (   763 PWs)   bands (ev):

     1.6469   9.5304  15.4436  20.6507  22.7802  25.1307

          k = 0.3846-0.0769 0.3846 (   767 PWs)   bands (ev):

     0.2239  12.2501  15.6098  21.9883  24.1501  25.0048

          k = 0.3077 0.0000 0.3077 (   767 PWs)   bands (ev):

    -0.8692  14.7483  16.5470  23.6131  24.6060  25.7211

          k = 0.0000 0.4615 0.0000 (   769 PWs)   bands (ev):

    -0.6383  17.4869  18.0070  18.0070  19.2415  22.3455

          k =-0.0769 0.5385-0.0769 (   763 PWs)   bands (ev):

     0.2236  14.8909  17.3211  17.4790  18.6768  22.5698

          k =-0.1538 0.6154-0.1538 (   764 PWs)   bands (ev):

     1.4195  12.0379  15.7824  17.2424  18.8803  24.2504

          k =-0.2308 0.6923-0.2308 (   764 PWs)   bands (ev):

     2.9370   9.3708  14.5117  17.2973  19.0807  26.6042

          k = 0.6923-0.2308 0.6923 (   760 PWs)   bands (ev):

     4.7427   6.9772  13.5426  17.6449  19.5246  28.5983

          k = 0.6154-0.1538 0.6154 (   763 PWs)   bands (ev):

     4.7513   6.9472  12.9042  18.2871  20.2676  27.9566

          k = 0.5385-0.0769 0.5385 (   769 PWs)   bands (ev):

     2.9400   9.2484  12.6666  19.2257  21.3106  27.5288

          k = 0.4615 0.0000 0.4615 (   770 PWs)   bands (ev):

     1.4205  11.3301  13.2708  20.4613  22.6276  26.8647

          k = 0.0000 0.6154 0.0000 (   761 PWs)   bands (ev):

     0.9651  15.3232  16.1135  16.8498  16.8498  21.1659

          k =-0.0769 0.6923-0.0769 (   765 PWs)   bands (ev):

     2.0394  13.4413  13.9937  16.5135  17.5427  21.6001

          k =-0.1538 0.7692-0.1538 (   766 PWs)   bands (ev):

     3.4336  11.0822  12.3280  16.4691  17.9671  23.5044

          k = 0.7692-0.1538 0.7692 (   763 PWs)   bands (ev):

     5.1191   8.6823  11.2066  16.7168  18.4031  26.0799

          k = 0.6923-0.0769 0.6923 (   761 PWs)   bands (ev):

     6.3707   7.1676  10.5090  17.2577  19.0846  28.9120

          k = 0.6154 0.0000 0.6154 (   756 PWs)   bands (ev):

     4.5453   8.7726  10.6752  18.0937  20.0579  29.9694

          k = 0.0000 0.7692 0.0000 (   765 PWs)   bands (ev):

     2.9880  11.7366  15.1899  16.0781  16.0781  20.3258

          k =-0.0769 0.8462-0.0769 (   765 PWs)   bands (ev):

     4.2472  10.1920  13.2199  15.9348  16.8841  20.9878

          k = 0.8462-0.0769 0.8462 (   760 PWs)   bands (ev):

     5.7572   8.9851  10.8903  16.0830  17.5103  23.1186

          k = 0.7692 0.0000 0.7692 (   746 PWs)   bands (ev):

     7.0748   8.0947   9.2305  16.5235  18.1751  25.8999

          k = 0.0000 0.9231 0.0000 (   761 PWs)   bands (ev):

     5.3264   8.6134  14.7264  15.6927  15.6927  19.8897

          k = 0.9231 0.0000 0.9231 (   756 PWs)   bands (ev):

     6.2286   7.8251  12.9977  15.7420  16.6649  20.7791

          k =-0.1538 0.3077 0.0000 (   774 PWs)   bands (ev):

    -1.5646  16.8768  18.3697  22.2556  23.7659  24.9003

          k =-0.2308 0.3846-0.0769 (   772 PWs)   bands (ev):

    -0.6960  14.1580  17.3778  21.9168  22.6082  26.0002

          k =-0.3077 0.4615-0.1538 (   769 PWs)   bands (ev):

     0.5099  11.2464  17.0447  20.4079  22.5833  25.9775

          k =-0.3846 0.5385-0.2308 (   765 PWs)   bands (ev):

     2.0418   8.5373  17.0465  19.1798  22.7262  24.7658

          k = 0.5385-0.3846 0.6923 (   763 PWs)   bands (ev):

     3.8708   6.1135  17.2846  18.3285  23.1247  23.8074

          k =-0.1538 0.4615 0.0000 (   763 PWs)   bands (ev):

    -0.4078  15.1721  16.7658  19.6378  20.7254  23.6786

          k =-0.2308 0.5385-0.0769 (   770 PWs)   bands (ev):

     0.6809  12.6596  15.8897  18.0244  21.2563  24.9293

          k =-0.3077 0.6154-0.1538 (   769 PWs)   bands (ev):

     2.0976   9.9486  15.6114  16.7910  21.4832  26.9055

          k = 0.6154-0.3077 0.7692 (   761 PWs)   bands (ev):

     3.8233   7.4511  15.1726  16.3824  21.8473  26.2885

          k = 0.5385-0.2308 0.6923 (   764 PWs)   bands (ev):

     5.0695   6.0062  14.5472  16.8001  22.4667  25.5247

          k = 0.4615-0.1538 0.6154 (   767 PWs)   bands (ev):

     3.2175   8.2319  14.1553  17.6323  23.3630  25.0037

          k = 0.3846-0.0769 0.5385 (   765 PWs)   bands (ev):

     1.5902  10.7493  14.1355  18.7923  24.4831  24.6905

          k = 0.3077 0.0000 0.4615 (   768 PWs)   bands (ev):

     0.2811  13.0388  14.9173  20.2517  24.0108  25.7727

          k =-0.1538 0.6154 0.0000 (   762 PWs)   bands (ev):

     1.1925  13.8847  15.0971  16.1690  19.5028  22.5993

          k =-0.2308 0.6923-0.0769 (   765 PWs)   bands (ev):

     2.4894  11.5652  13.8808  15.2731  20.2366  24.0484

          k = 0.6923-0.2308 0.8462 (   761 PWs)   bands (ev):

     4.0972   9.0676  12.8334  15.2009  20.6769  26.4065

          k = 0.6154-0.1538 0.7692 (   757 PWs)   bands (ev):

     5.9177   6.8592  12.0132  15.5982  21.2563  28.1282

          k = 0.5385-0.0769 0.6923 (   759 PWs)   bands (ev):

     4.7062   8.1750  11.5675  16.3493  22.0893  27.5469

          k = 0.4615 0.0000 0.6154 (   766 PWs)   bands (ev):

     2.9956  10.0497  11.9643  17.4212  23.1906  26.6134

          k =-0.1538 0.7692 0.0000 (   763 PWs)   bands (ev):

     3.2112  11.9012  13.0233  14.9619  18.6758  21.8219

          k = 0.7692-0.1538 0.9231 (   757 PWs)   bands (ev):

     4.6861  10.4186  11.1760  14.4786  19.6120  23.4873

          k = 0.6923-0.0769 0.8462 (   758 PWs)   bands (ev):

     6.3927   8.5157   9.9228  14.7301  20.2628  26.0654

          k = 0.6154 0.0000 0.7692 (   754 PWs)   bands (ev):

     6.4764   7.9227   9.7961  15.3737  21.0536  28.9058

          k = 0.8462-0.0769 1.0000 (   761 PWs)   bands (ev):

     5.5424   8.8191  12.5918  14.5151  18.2606  21.4182

          k = 0.7692 0.0000 0.9231 (   755 PWs)   bands (ev):

     6.6514   8.2277  10.8112  14.2500  19.4023  23.2956

          k =-0.3077 0.6154 0.0000 (   761 PWs)   bands (ev):

     1.8721  11.7552  13.5788  16.4770  22.8900  25.3029

          k = 0.6154-0.3077 0.9231 (   761 PWs)   bands (ev):

     3.3835   9.6688  12.9611  15.2318  23.7474  25.9722

          k = 0.5385-0.2308 0.8462 (   756 PWs)   bands (ev):

     5.1812   7.3751  13.0355  14.4253  24.3117  25.0941

          k = 0.6923-0.2308 1.0000 (   759 PWs)   bands (ev):

     3.8775  10.8994  12.0688  13.5676  22.0843  24.6433

          k = 0.6154-0.1538 0.9231 (   756 PWs)   bands (ev):

     5.5554   9.0003  11.2955  12.9315  23.1611  26.5357

          k = 0.5385-0.0769 0.8462 (   752 PWs)   bands (ev):

     6.7848   7.5821  10.7948  13.2123  23.9513  27.0539

          k = 0.4615 0.0000 0.7692 (   757 PWs)   bands (ev):

     4.9766   9.1972  10.9968  14.0282  24.8748  25.8926

          k = 0.6923-0.0769 1.0000 (   756 PWs)   bands (ev):

     6.1875   9.3924  10.4715  12.7155  21.6739  24.2865

          k = 0.6154 0.0000 0.9231 (   757 PWs)   bands (ev):

     7.4983   8.5147   9.4174  12.5265  22.9608  26.4145

          k = 0.5385-0.0769 1.0000 (   754 PWs)   bands (ev):

     7.2459   8.7713   9.8948  11.6388  25.5011  26.7401

     the Fermi energy is     9.2815 ev

!    total energy              =     -39.49697602 Ry
     Harris-Foulkes estimate   =     -39.49697603 Ry
     estimated scf accuracy    <       0.00000002 Ry

     total all-electron energy =      -485.639758 Ry

     The total energy is the sum of the following terms:

     one-electron contribution =       3.50487999 Ry
     hartree contribution      =       0.00752262 Ry
     xc contribution           =      -3.10631280 Ry
     ewald contribution        =      -5.65256968 Ry
     one-center paw contrib.   =     -34.25048420 Ry
     smearing contrib. (-TS)   =      -0.00001195 Ry

     convergence has been achieved in   4 iterations

     Writing output data file Al.save

     init_run     :      0.49s CPU      0.53s WALL (       1 calls)
     electrons    :      3.29s CPU      3.47s WALL (       1 calls)

     Called by init_run:
     wfcinit      :      0.19s CPU      0.20s WALL (       1 calls)
     potinit      :      0.06s CPU      0.07s WALL (       1 calls)

     Called by electrons:
     c_bands      :      2.57s CPU      2.72s WALL (       5 calls)
     sum_band     :      0.44s CPU      0.45s WALL (       5 calls)
     v_of_rho     :      0.03s CPU      0.04s WALL (       5 calls)
     newd         :      0.01s CPU      0.01s WALL (       5 calls)
     mix_rho      :      0.02s CPU      0.02s WALL (       5 calls)

     Called by c_bands:
     init_us_2    :      0.14s CPU      0.12s WALL (     924 calls)
     cegterg      :      2.46s CPU      2.60s WALL (     420 calls)

     Called by *egterg:
     h_psi        :      2.01s CPU      2.14s WALL (    1578 calls)
     s_psi        :      0.03s CPU      0.03s WALL (    1578 calls)
     g_psi        :      0.02s CPU      0.03s WALL (    1074 calls)
     cdiaghg      :      0.30s CPU      0.28s WALL (    1410 calls)

     Called by h_psi:
     add_vuspsi   :      0.03s CPU      0.03s WALL (    1578 calls)

     General routines
     calbec       :      0.06s CPU      0.07s WALL (    1998 calls)
     fft          :      0.01s CPU      0.02s WALL (      67 calls)
     fftw         :      1.95s CPU      2.06s WALL (   16908 calls)
     davcio       :      0.02s CPU      0.03s WALL (    1344 calls)

     Parallel routines
     fft_scatter  :      0.67s CPU      0.70s WALL (   16975 calls)

     PAW routines
     PAW_pot      :      0.25s CPU      0.26s WALL (       5 calls)
     PAW_ddot     :      0.02s CPU      0.02s WALL (      12 calls)
     PAW_symme    :      0.00s CPU      0.00s WALL (      10 calls)

     PWSCF        :     4.52s CPU         4.77s WALL


   This run was terminated on:   1:32:11  12Jul2015            

=------------------------------------------------------------------------------=
   JOB DONE.
=------------------------------------------------------------------------------=
