
     Program PWSCF v.5.0.2 (svn rev. 9656) starts on 26Jul2015 at  1:34:49 

     This program is part of the open-source Quantum ESPRESSO suite
     for quantum simulation of materials; please cite
         "P. Giannozzi et al., J. Phys.:Condens. Matter 21 395502 (2009);
          URL http://www.quantum-espresso.org", 
     in publications or presentations arising from this work. More details at
     http://www.quantum-espresso.org/quote.php

     Parallel version (MPI), running on     4 processors
     R & G space division:  proc/nbgrp/npool/nimage =       4

     Current dimensions of program PWSCF are:
     Max number of different atomic species (ntypx) = 10
     Max number of k-points (npk) =  40000
     Max angular momentum in pseudopotentials (lmaxx) =  3
     Waiting for input...
     Reading input from standard input
               file C.pbe-rrkjus.UPF: wavefunction(s)  2S 2P renormalized

     Subspace diagonalization in iterative solution of the eigenvalue problem:
     a serial algorithm will be used


     Parallelization info
     --------------------
     sticks:   dense  smooth     PW     G-vecs:    dense   smooth      PW
     Min         211     105     31                59639    21073    3596
     Max         212     106     32                59692    21130    3627
     Sum         847     421    127               238701    84359   14429



     bravais-lattice index     =            0
     lattice parameter (alat)  =       4.6800  a.u.
     unit-cell volume          =    1065.2448 (a.u.)^3
     number of atoms/cell      =            2
     number of atomic types    =            1
     number of electrons       =         8.00
     number of Kohn-Sham states=            8
     kinetic-energy cutoff     =      70.0000  Ry
     charge density cutoff     =     560.0000  Ry
     convergence threshold     =      1.0E-08
     mixing beta               =       0.7000
     number of iterations used =            8  plain     mixing
     Exchange-correlation      =  SLA  PW   PBE  PBE ( 1 4 3 4 0)
     EXX-fraction              =        0.00

     celldm(1)=   4.680000  celldm(2)=   0.000000  celldm(3)=   0.000000
     celldm(4)=   0.000000  celldm(5)=   0.000000  celldm(6)=   0.000000

     crystal axes: (cart. coord. in units of alat)
               a(1) = (   1.000000   0.000000   0.000000 )  
               a(2) = (   0.500000   0.866025   0.000000 )  
               a(3) = (   0.000000   0.000000  12.000000 )  

     reciprocal axes: (cart. coord. in units 2 pi/alat)
               b(1) = (  1.000000 -0.577350  0.000000 )  
               b(2) = (  0.000000  1.154701  0.000000 )  
               b(3) = (  0.000000  0.000000  0.083333 )  


     PseudoPot. # 1 for C  read from file:
     ./C.pbe-rrkjus.UPF
     MD5 check sum: 00fb224312de0c5b6853bd333518df6f
     Pseudo is Ultrasoft, Zval =  4.0
     Generated by new atomic code, or converted to UPF format
     Using radial grid of  627 points,  4 beta functions with: 
                l(1) =   0
                l(2) =   0
                l(3) =   1
                l(4) =   1
     Q(r) pseudized with 0 coefficients 


     atomic species   valence    mass     pseudopotential
        C              4.00    12.00000     C ( 1.00)

     24 Sym. Ops., with inversion, found (12 have fractional translation)



   Cartesian axes

     site n.     atom                  positions (alat units)
         1           C   tau(   1) = (   0.0000000   0.0000000   0.0000000  )
         2           C   tau(   2) = (   1.0000000   0.5773503   0.0000000  )

     number of k points=    14  gaussian smearing, width (Ry)=  0.0010
                       cart. coord. in units 2pi/alat
        k(    1) = (   0.0000000   0.0000000   0.0000000), wk =   0.0200000
        k(    2) = (   0.0000000   0.1154701   0.0000000), wk =   0.1200000
        k(    3) = (   0.0000000   0.2309401   0.0000000), wk =   0.1200000
        k(    4) = (   0.0000000   0.3464102   0.0000000), wk =   0.1200000
        k(    5) = (   0.0000000   0.4618802   0.0000000), wk =   0.1200000
        k(    6) = (   0.0000000  -0.5773503   0.0000000), wk =   0.0600000
        k(    7) = (   0.1000000   0.1732051   0.0000000), wk =   0.1200000
        k(    8) = (   0.1000000   0.2886751   0.0000000), wk =   0.2400000
        k(    9) = (   0.1000000   0.4041452   0.0000000), wk =   0.2400000
        k(   10) = (   0.1000000  -0.6350853   0.0000000), wk =   0.2400000
        k(   11) = (   0.2000000   0.3464102   0.0000000), wk =   0.1200000
        k(   12) = (   0.2000000  -0.6928203   0.0000000), wk =   0.2400000
        k(   13) = (   0.2000000  -0.5773503   0.0000000), wk =   0.1200000
        k(   14) = (   0.3000000  -0.6350853   0.0000000), wk =   0.1200000

     Dense  grid:   238701 G-vectors     FFT dimensions: (  36,  36, 432)

     Smooth grid:    84359 G-vectors     FFT dimensions: (  25,  25, 300)

     Largest allocated arrays     est. size (Mb)     dimensions
        Kohn-Sham Wavefunctions         0.34 Mb     (   2764,    8)
        NL pseudopotentials             0.67 Mb     (   2764,   16)
        Each V/rho on FFT grid          2.14 Mb     ( 139968)
        Each G-vector array             0.46 Mb     (  59639)
        G-vector shells                 0.14 Mb     (  18757)
     Largest temporary arrays     est. size (Mb)     dimensions
        Auxiliary wavefunctions         1.35 Mb     (   2764,   32)
        Each subspace H/S matrix        0.02 Mb     (  32,  32)
        Each <psi_i|beta_j> matrix      0.00 Mb     (     16,    8)
        Arrays for rho mixing          17.09 Mb     ( 139968,   8)

     Initial potential from superposition of free atoms

     starting charge    7.99989, renormalised to    8.00000

     negative rho (up, down):  0.248E-04 0.000E+00
     Starting wfc are    8 randomized atomic wfcs

     total cpu time spent up to now is        4.4 secs

     per-process dynamical memory:    30.9 Mb

     Self-consistent Calculation

     iteration #  1     ecut=    70.00 Ry     beta=0.70
     Davidson diagonalization with overlap
     ethr =  1.00E-02,  avg # of iterations =  5.1

     negative rho (up, down):  0.175E-04 0.000E+00

     total cpu time spent up to now is       13.0 secs

     total energy              =     -22.76143335 Ry
     Harris-Foulkes estimate   =     -22.87870108 Ry
     estimated scf accuracy    <       0.19587461 Ry

     iteration #  2     ecut=    70.00 Ry     beta=0.70
     Davidson diagonalization with overlap
     ethr =  2.45E-03,  avg # of iterations =  4.1

     negative rho (up, down):  0.167E-04 0.000E+00

     total cpu time spent up to now is       19.8 secs

     total energy              =     -22.79077978 Ry
     Harris-Foulkes estimate   =     -22.79091214 Ry
     estimated scf accuracy    <       0.00246511 Ry

     iteration #  3     ecut=    70.00 Ry     beta=0.70
     Davidson diagonalization with overlap
     ethr =  3.08E-05,  avg # of iterations = 11.2

     negative rho (up, down):  0.184E-04 0.000E+00

     total cpu time spent up to now is       30.3 secs

     total energy              =     -22.79111763 Ry
     Harris-Foulkes estimate   =     -22.79108869 Ry
     estimated scf accuracy    <       0.00013740 Ry

     iteration #  4     ecut=    70.00 Ry     beta=0.70
     Davidson diagonalization with overlap
     c_bands:  1 eigenvalues not converged
     ethr =  1.72E-06,  avg # of iterations =  5.4

     negative rho (up, down):  0.186E-04 0.000E+00

     total cpu time spent up to now is       37.6 secs

     total energy              =     -22.79112317 Ry
     Harris-Foulkes estimate   =     -22.79112240 Ry
     estimated scf accuracy    <       0.00000089 Ry

     iteration #  5     ecut=    70.00 Ry     beta=0.70
     Davidson diagonalization with overlap
     ethr =  1.11E-08,  avg # of iterations =  3.4

     negative rho (up, down):  0.185E-04 0.000E+00

     total cpu time spent up to now is       44.4 secs

     total energy              =     -22.79112353 Ry
     Harris-Foulkes estimate   =     -22.79112352 Ry
     estimated scf accuracy    <       0.00000002 Ry

     iteration #  6     ecut=    70.00 Ry     beta=0.70
     Davidson diagonalization with overlap
     ethr =  2.94E-10,  avg # of iterations =  2.0

     negative rho (up, down):  0.185E-04 0.000E+00

     total cpu time spent up to now is       50.4 secs

     End of self-consistent calculation

          k = 0.0000 0.0000 0.0000 ( 10613 PWs)   bands (ev):

   -22.4110 -10.5465  -6.1043  -6.1043   0.2892   1.0238   1.1907   1.5372

          k = 0.0000 0.1155 0.0000 ( 10547 PWs)   bands (ev):

   -22.1772 -10.2679  -7.0108  -6.5693   0.6071   1.3468   1.5174   1.8622

          k = 0.0000 0.2309 0.0000 ( 10513 PWs)   bands (ev):

   -21.4796  -9.4435  -9.1655  -7.5684   1.5604   2.3130   2.4976   2.8360

          k = 0.0000 0.3464 0.0000 ( 10553 PWs)   bands (ev):

   -20.3313 -11.7507  -8.5421  -8.1196   2.7275   3.1415   3.9481   4.1309

          k = 0.0000 0.4619 0.0000 ( 10540 PWs)   bands (ev):

   -18.7670 -14.2970  -9.2012  -6.4595   0.1082   4.3495   5.3706   6.1734

          k = 0.0000-0.5774 0.0000 ( 10512 PWs)   bands (ev):

   -17.2364 -16.1717  -9.4310  -5.3554  -1.3502   4.2385   8.0680   8.2222

          k = 0.1000 0.1732 0.0000 ( 10505 PWs)   bands (ev):

   -21.7115  -9.7161  -8.3464  -7.4997   1.2432   1.9919   2.1709   2.5118

          k = 0.1000 0.2887 0.0000 ( 10534 PWs)   bands (ev):

   -20.7885 -10.4829  -8.7251  -8.6376   2.5130   3.2676   3.4779   3.7746

          k = 0.1000 0.4041 0.0000 ( 10554 PWs)   bands (ev):

   -19.4299 -12.9632  -9.6304  -7.1138   1.2499   4.4022   5.2015   5.4343

          k = 0.1000-0.6351 0.0000 ( 10554 PWs)   bands (ev):

   -17.7169 -15.3122 -10.1010  -5.4968  -0.9785   5.2682   6.9136   7.6914

          k = 0.2000 0.3464 0.0000 ( 10538 PWs)   bands (ev):

   -19.6545 -11.9450 -10.4565  -7.3424   1.8081   4.0940   4.8610   5.1118

          k = 0.2000-0.6928 0.0000 ( 10532 PWs)   bands (ev):

   -18.1198 -13.9130 -11.5179  -5.6943  -0.3557   6.2749   6.9564   7.3978

          k = 0.2000-0.5774 0.0000 ( 10514 PWs)   bands (ev):

   -16.6341 -15.6292 -11.8208  -4.5066  -1.7350   7.6311   8.2809   8.8418

          k = 0.3000-0.6351 0.0000 ( 10530 PWs)   bands (ev):

   -16.5112 -14.8422 -13.1201  -4.0345  -2.0251   7.6974   8.6183   9.8161

     the Fermi energy is    -2.2623 ev

!    total energy              =     -22.79112353 Ry
     Harris-Foulkes estimate   =     -22.79112353 Ry
     estimated scf accuracy    <          5.3E-10 Ry

     The total energy is the sum of the following terms:

     one-electron contribution =    -351.72642851 Ry
     hartree contribution      =     176.85440388 Ry
     xc contribution           =      -6.99703110 Ry
     ewald contribution        =     159.07793219 Ry
     smearing contrib. (-TS)   =      -0.00000000 Ry

     convergence has been achieved in   6 iterations

     Writing output data file graphene.save

     init_run     :      4.10s CPU      4.34s WALL (       1 calls)
     electrons    :     43.64s CPU     46.00s WALL (       1 calls)

     Called by init_run:
     wfcinit      :      1.40s CPU      1.51s WALL (       1 calls)
     potinit      :      1.11s CPU      1.15s WALL (       1 calls)

     Called by electrons:
     c_bands      :     27.93s CPU     29.39s WALL (       6 calls)
     sum_band     :      8.63s CPU      9.08s WALL (       6 calls)
     v_of_rho     :      2.96s CPU      3.21s WALL (       7 calls)
     newd         :      3.80s CPU      3.92s WALL (       7 calls)
     mix_rho      :      0.45s CPU      0.46s WALL (       6 calls)

     Called by c_bands:
     init_us_2    :      0.44s CPU      0.57s WALL (     182 calls)
     cegterg      :     27.35s CPU     28.63s WALL (      84 calls)

     Called by *egterg:
     h_psi        :     24.94s CPU     26.18s WALL (     534 calls)
     s_psi        :      0.50s CPU      0.49s WALL (     534 calls)
     g_psi        :      0.12s CPU      0.13s WALL (     436 calls)
     cdiaghg      :      0.22s CPU      0.22s WALL (     520 calls)

     Called by h_psi:
     add_vuspsi   :      0.45s CPU      0.47s WALL (     534 calls)

     General routines
     calbec       :      0.83s CPU      0.86s WALL (     618 calls)
     fft          :      2.91s CPU      3.10s WALL (     107 calls)
     ffts         :      0.09s CPU      0.09s WALL (      13 calls)
     fftw         :     17.13s CPU     18.18s WALL (    5168 calls)
     interpolate  :      0.57s CPU      0.57s WALL (      13 calls)
     davcio       :      0.13s CPU      0.20s WALL (     266 calls)

     Parallel routines
     fft_scatter  :     12.35s CPU     13.35s WALL (    5288 calls)

     PWSCF        :    48.01s CPU        50.66s WALL


   This run was terminated on:   1:35:40  26Jul2015            

=------------------------------------------------------------------------------=
   JOB DONE.
=------------------------------------------------------------------------------=
