
     Program PWSCF v.5.0.2 (svn rev. 9656) starts on 26Jul2015 at  3:26: 1 

     This program is part of the open-source Quantum ESPRESSO suite
     for quantum simulation of materials; please cite
         "P. Giannozzi et al., J. Phys.:Condens. Matter 21 395502 (2009);
          URL http://www.quantum-espresso.org", 
     in publications or presentations arising from this work. More details at
     http://www.quantum-espresso.org/quote.php

     Parallel version (MPI), running on     4 processors
     R & G space division:  proc/nbgrp/npool/nimage =       4

     Current dimensions of program PWSCF are:
     Max number of different atomic species (ntypx) = 10
     Max number of k-points (npk) =  40000
     Max angular momentum in pseudopotentials (lmaxx) =  3
     Waiting for input...
     Reading input from standard input
               file C.pbe-rrkjus.UPF: wavefunction(s)  2S 2P renormalized

     Subspace diagonalization in iterative solution of the eigenvalue problem:
     a serial algorithm will be used


     Parallelization info
     --------------------
     sticks:   dense  smooth     PW     G-vecs:    dense   smooth      PW
     Min         211     133     40                58589    30009    5030
     Max         212     134     41                58614    30030    5067
     Sum         847     535    163               234415   120067   20207



     bravais-lattice index     =            0
     lattice parameter (alat)  =       4.6500  a.u.
     unit-cell volume          =    1044.8904 (a.u.)^3
     number of atoms/cell      =            2
     number of atomic types    =            1
     number of electrons       =         8.00
     number of Kohn-Sham states=            8
     kinetic-energy cutoff     =      90.0000  Ry
     charge density cutoff     =     560.0000  Ry
     convergence threshold     =      1.0E-08
     mixing beta               =       0.7000
     number of iterations used =            8  plain     mixing
     Exchange-correlation      =  SLA  PW   PBE  PBE ( 1 4 3 4 0)
     EXX-fraction              =        0.00

     celldm(1)=   4.650000  celldm(2)=   0.000000  celldm(3)=   0.000000
     celldm(4)=   0.000000  celldm(5)=   0.000000  celldm(6)=   0.000000

     crystal axes: (cart. coord. in units of alat)
               a(1) = (   1.000000   0.000000   0.000000 )  
               a(2) = (   0.500000   0.866025   0.000000 )  
               a(3) = (   0.000000   0.000000  12.000000 )  

     reciprocal axes: (cart. coord. in units 2 pi/alat)
               b(1) = (  1.000000 -0.577350  0.000000 )  
               b(2) = (  0.000000  1.154701  0.000000 )  
               b(3) = (  0.000000  0.000000  0.083333 )  


     PseudoPot. # 1 for C  read from file:
     ./C.pbe-rrkjus.UPF
     MD5 check sum: 00fb224312de0c5b6853bd333518df6f
     Pseudo is Ultrasoft, Zval =  4.0
     Generated by new atomic code, or converted to UPF format
     Using radial grid of  627 points,  4 beta functions with: 
                l(1) =   0
                l(2) =   0
                l(3) =   1
                l(4) =   1
     Q(r) pseudized with 0 coefficients 


     atomic species   valence    mass     pseudopotential
        C              4.00    12.00000     C ( 1.00)

     24 Sym. Ops., with inversion, found (12 have fractional translation)



   Cartesian axes

     site n.     atom                  positions (alat units)
         1           C   tau(   1) = (   0.0000000   0.0000000   0.0000000  )
         2           C   tau(   2) = (   1.0000000   0.5773503   0.0000000  )

     number of k points=    21  gaussian smearing, width (Ry)=  0.0010
                       cart. coord. in units 2pi/alat
        k(    1) = (   0.0000000   0.0000000   0.0000000), wk =   0.0118343
        k(    2) = (   0.0000000   0.0888231   0.0000000), wk =   0.0710059
        k(    3) = (   0.0000000   0.1776462   0.0000000), wk =   0.0710059
        k(    4) = (   0.0000000   0.2664694   0.0000000), wk =   0.0710059
        k(    5) = (   0.0000000   0.3552925   0.0000000), wk =   0.0710059
        k(    6) = (   0.0000000   0.4441156   0.0000000), wk =   0.0710059
        k(    7) = (   0.0000000   0.5329387   0.0000000), wk =   0.0710059
        k(    8) = (   0.0769231   0.1332347   0.0000000), wk =   0.0710059
        k(    9) = (   0.0769231   0.2220578   0.0000000), wk =   0.1420118
        k(   10) = (   0.0769231   0.3108809   0.0000000), wk =   0.1420118
        k(   11) = (   0.0769231   0.3997040   0.0000000), wk =   0.1420118
        k(   12) = (   0.0769231   0.4885272   0.0000000), wk =   0.1420118
        k(   13) = (   0.0769231  -0.5773503   0.0000000), wk =   0.0710059
        k(   14) = (   0.1538462   0.2664694   0.0000000), wk =   0.0710059
        k(   15) = (   0.1538462   0.3552925   0.0000000), wk =   0.1420118
        k(   16) = (   0.1538462   0.4441156   0.0000000), wk =   0.1420118
        k(   17) = (   0.1538462  -0.6217618   0.0000000), wk =   0.1420118
        k(   18) = (   0.2307692   0.3997040   0.0000000), wk =   0.0710059
        k(   19) = (   0.2307692  -0.6661734   0.0000000), wk =   0.1420118
        k(   20) = (   0.2307692  -0.5773503   0.0000000), wk =   0.0710059
        k(   21) = (   0.3076923  -0.6217618   0.0000000), wk =   0.0710059

     Dense  grid:   234415 G-vectors     FFT dimensions: (  36,  36, 432)

     Smooth grid:   120067 G-vectors     FFT dimensions: (  30,  30, 360)

     Largest allocated arrays     est. size (Mb)     dimensions
        Kohn-Sham Wavefunctions         0.48 Mb     (   3925,    8)
        NL pseudopotentials             0.96 Mb     (   3925,   16)
        Each V/rho on FFT grid          2.14 Mb     ( 139968)
        Each G-vector array             0.45 Mb     (  58604)
        G-vector shells                 0.13 Mb     (  17344)
     Largest temporary arrays     est. size (Mb)     dimensions
        Auxiliary wavefunctions         1.92 Mb     (   3925,   32)
        Each subspace H/S matrix        0.02 Mb     (  32,  32)
        Each <psi_i|beta_j> matrix      0.00 Mb     (     16,    8)
        Arrays for rho mixing          17.09 Mb     ( 139968,   8)

     Initial potential from superposition of free atoms

     starting charge    7.99989, renormalised to    8.00000

     negative rho (up, down):  0.254E-04 0.000E+00
     Starting wfc are    8 randomized atomic wfcs

     total cpu time spent up to now is        6.1 secs

     per-process dynamical memory:    31.0 Mb

     Self-consistent Calculation

     iteration #  1     ecut=    90.00 Ry     beta=0.70
     Davidson diagonalization with overlap
     ethr =  1.00E-02,  avg # of iterations =  5.2

     negative rho (up, down):  0.177E-04 0.000E+00

     total cpu time spent up to now is       24.1 secs

     total energy              =     -22.75984588 Ry
     Harris-Foulkes estimate   =     -22.88430759 Ry
     estimated scf accuracy    <       0.20654915 Ry

     iteration #  2     ecut=    90.00 Ry     beta=0.70
     Davidson diagonalization with overlap
     ethr =  2.58E-03,  avg # of iterations =  3.0

     negative rho (up, down):  0.172E-04 0.000E+00

     total cpu time spent up to now is       37.5 secs

     total energy              =     -22.79097020 Ry
     Harris-Foulkes estimate   =     -22.79110472 Ry
     estimated scf accuracy    <       0.00251574 Ry

     iteration #  3     ecut=    90.00 Ry     beta=0.70
     Davidson diagonalization with overlap
     ethr =  3.14E-05,  avg # of iterations = 12.2

     negative rho (up, down):  0.186E-04 0.000E+00

     total cpu time spent up to now is       62.6 secs

     total energy              =     -22.79133670 Ry
     Harris-Foulkes estimate   =     -22.79130627 Ry
     estimated scf accuracy    <       0.00013651 Ry

     iteration #  4     ecut=    90.00 Ry     beta=0.70
     Davidson diagonalization with overlap
     ethr =  1.71E-06,  avg # of iterations =  4.6

     negative rho (up, down):  0.187E-04 0.000E+00

     total cpu time spent up to now is       77.0 secs

     total energy              =     -22.79134224 Ry
     Harris-Foulkes estimate   =     -22.79134140 Ry
     estimated scf accuracy    <       0.00000096 Ry

     iteration #  5     ecut=    90.00 Ry     beta=0.70
     Davidson diagonalization with overlap
     ethr =  1.20E-08,  avg # of iterations =  2.4

     negative rho (up, down):  0.187E-04 0.000E+00

     total cpu time spent up to now is       90.7 secs

     total energy              =     -22.79134257 Ry
     Harris-Foulkes estimate   =     -22.79134256 Ry
     estimated scf accuracy    <       0.00000003 Ry

     iteration #  6     ecut=    90.00 Ry     beta=0.70
     Davidson diagonalization with overlap
     ethr =  3.20E-10,  avg # of iterations =  2.0

     negative rho (up, down):  0.186E-04 0.000E+00

     total cpu time spent up to now is      103.4 secs

     End of self-consistent calculation

          k = 0.0000 0.0000 0.0000 ( 14791 PWs)   bands (ev):

   -22.4919 -10.6021  -6.0253  -6.0253   0.3035   1.0417   1.2090   1.5613

          k = 0.0000 0.0888 0.0000 ( 14905 PWs)   bands (ev):

   -22.3519 -10.4344  -6.5812  -6.3173   0.4940   1.2354   1.4049   1.7562

          k = 0.0000 0.1776 0.0000 ( 14912 PWs)   bands (ev):

   -21.9332  -9.9352  -8.0124  -7.0229   1.0655   1.8158   1.9924   2.3404

          k = 0.0000 0.2665 0.0000 ( 14998 PWs)   bands (ev):

   -21.2399  -9.8975  -9.1177  -7.8440   2.0167   2.7774   2.9716   3.3112

          k = 0.0000 0.3553 0.0000 ( 15052 PWs)   bands (ev):

   -20.2802 -11.9278  -8.5736  -8.0142   2.6845   3.3416   4.1553   4.3420

          k = 0.0000 0.4441 0.0000 ( 15078 PWs)   bands (ev):

   -19.0713 -13.9190  -9.1023  -6.7115   0.6052   4.6239   5.0903   5.8723

          k = 0.0000 0.5329 0.0000 ( 15076 PWs)   bands (ev):

   -17.6864 -15.7129  -9.3773  -5.5374  -0.9947   4.5180   7.1139   7.9544

          k = 0.0769 0.1332 0.0000 ( 14951 PWs)   bands (ev):

   -22.0725 -10.1009  -7.4903  -6.9016   0.8752   1.6225   1.7966   2.1457

          k = 0.0769 0.2221 0.0000 ( 15008 PWs)   bands (ev):

   -21.5166  -9.4419  -9.0185  -7.7977   1.6372   2.3949   2.5799   2.9241

          k = 0.0769 0.3109 0.0000 ( 15057 PWs)   bands (ev):

   -20.6901 -10.9050  -8.6457  -8.4779   2.7772   3.4700   3.7099   3.7550

          k = 0.0769 0.3997 0.0000 ( 15088 PWs)   bands (ev):

   -19.6049 -12.8846  -9.3067  -7.2593   1.5502   4.2850   5.0978   5.3168

          k = 0.0769 0.4885 0.0000 ( 15100 PWs)   bands (ev):

   -18.2916 -14.7801  -9.7212  -5.9436  -0.3442   5.1761   6.1900   6.9930

          k = 0.0769-0.5774 0.0000 ( 15091 PWs)   bands (ev):

   -17.1403 -16.1321  -9.8621  -5.1912  -1.3007   5.1142   8.3097   8.4713

          k = 0.1538 0.2665 0.0000 ( 15087 PWs)   bands (ev):

   -20.8274 -10.2660  -9.0054  -8.6342   2.5889   3.3568   3.5592   3.8958

          k = 0.1538 0.3553 0.0000 ( 15095 PWs)   bands (ev):

   -19.8749 -11.8707 -10.0180  -7.5426   2.2088   3.9154   4.6949   4.9300

          k = 0.1538 0.4441 0.0000 ( 15125 PWs)   bands (ev):

   -18.6787 -13.6756 -10.6507  -6.2456   0.3433   5.6034   6.3813   6.6908

          k = 0.1538-0.6218 0.0000 ( 15125 PWs)   bands (ev):

   -17.3161 -15.3855 -10.9575  -5.0422  -1.1741   6.7231   7.6518   8.2494

          k = 0.2308 0.3997 0.0000 ( 15123 PWs)   bands (ev):

   -18.8101 -12.9095 -11.3959  -6.3547   0.6540   5.4199   6.1639   6.4967

          k = 0.2308-0.6662 0.0000 ( 15113 PWs)   bands (ev):

   -17.5328 -14.3049 -12.1775  -5.0297  -0.9052   7.2609   7.6768   8.4535

          k = 0.2308-0.5774 0.0000 ( 15093 PWs)   bands (ev):

   -16.4240 -15.5084 -12.3957  -4.1734  -1.8437   8.1395   8.7366   9.2148

          k = 0.3077-0.6218 0.0000 ( 15111 PWs)   bands (ev):

   -16.2594 -15.0017 -13.3129  -3.7265  -2.1833   7.7695   9.1202  10.0980

     the Fermi energy is    -3.1365 ev

!    total energy              =     -22.79134257 Ry
     Harris-Foulkes estimate   =     -22.79134257 Ry
     estimated scf accuracy    <          5.6E-10 Ry

     The total energy is the sum of the following terms:

     one-electron contribution =    -353.76096295 Ry
     hartree contribution      =     177.88990931 Ry
     xc contribution           =      -7.02453037 Ry
     ewald contribution        =     160.10424143 Ry
     smearing contrib. (-TS)   =      -0.00000000 Ry

     convergence has been achieved in   6 iterations

     Writing output data file graphene.save

     init_run     :      5.78s CPU      6.01s WALL (       1 calls)
     electrons    :     92.95s CPU     97.37s WALL (       1 calls)

     Called by init_run:
     wfcinit      :      3.39s CPU      3.52s WALL (       1 calls)
     potinit      :      1.08s CPU      1.12s WALL (       1 calls)

     Called by electrons:
     c_bands      :     71.17s CPU     74.11s WALL (       6 calls)
     sum_band     :     15.65s CPU     16.55s WALL (       6 calls)
     v_of_rho     :      2.66s CPU      2.91s WALL (       7 calls)
     newd         :      2.97s CPU      3.17s WALL (       7 calls)
     mix_rho      :      0.45s CPU      0.46s WALL (       6 calls)

     Called by c_bands:
     init_us_2    :      0.73s CPU      0.93s WALL (     273 calls)
     cegterg      :     70.02s CPU     72.71s WALL (     126 calls)

     Called by *egterg:
     h_psi        :     66.65s CPU     69.15s WALL (     764 calls)
     s_psi        :      0.86s CPU      0.88s WALL (     764 calls)
     g_psi        :      0.32s CPU      0.32s WALL (     617 calls)
     cdiaghg      :      0.32s CPU      0.32s WALL (     743 calls)

     Called by h_psi:
     add_vuspsi   :      0.82s CPU      0.85s WALL (     764 calls)

     General routines
     calbec       :      1.11s CPU      1.15s WALL (     890 calls)
     fft          :      2.47s CPU      2.69s WALL (     107 calls)
     ffts         :      0.17s CPU      0.18s WALL (      13 calls)
     fftw         :     62.09s CPU     64.73s WALL (    7654 calls)
     interpolate  :      0.54s CPU      0.60s WALL (      13 calls)
     davcio       :      0.24s CPU      0.34s WALL (     399 calls)

     Parallel routines
     fft_scatter  :     22.97s CPU     25.03s WALL (    7774 calls)

     PWSCF        :  1m39.07s CPU     1m43.73s WALL


   This run was terminated on:   3:27:44  26Jul2015            

=------------------------------------------------------------------------------=
   JOB DONE.
=------------------------------------------------------------------------------=
