
     Program PWSCF v.5.0.2 (svn rev. 9656) starts on 26Jul2015 at  2:44:45 

     This program is part of the open-source Quantum ESPRESSO suite
     for quantum simulation of materials; please cite
         "P. Giannozzi et al., J. Phys.:Condens. Matter 21 395502 (2009);
          URL http://www.quantum-espresso.org", 
     in publications or presentations arising from this work. More details at
     http://www.quantum-espresso.org/quote.php

     Parallel version (MPI), running on     4 processors
     R & G space division:  proc/nbgrp/npool/nimage =       4

     Current dimensions of program PWSCF are:
     Max number of different atomic species (ntypx) = 10
     Max number of k-points (npk) =  40000
     Max angular momentum in pseudopotentials (lmaxx) =  3
     Waiting for input...
     Reading input from standard input
               file C.pbe-rrkjus.UPF: wavefunction(s)  2S 2P renormalized

     Subspace diagonalization in iterative solution of the eigenvalue problem:
     a serial algorithm will be used


     Parallelization info
     --------------------
     sticks:   dense  smooth     PW     G-vecs:    dense   smooth      PW
     Min         211     109     34                58589    22883    3942
     Max         212     110     35                58614    22912    3961
     Sum         847     439    139               234415    91585   15801



     bravais-lattice index     =            0
     lattice parameter (alat)  =       4.6500  a.u.
     unit-cell volume          =    1044.8904 (a.u.)^3
     number of atoms/cell      =            2
     number of atomic types    =            1
     number of electrons       =         8.00
     number of Kohn-Sham states=            8
     kinetic-energy cutoff     =      75.0000  Ry
     charge density cutoff     =     560.0000  Ry
     convergence threshold     =      1.0E-08
     mixing beta               =       0.7000
     number of iterations used =            8  plain     mixing
     Exchange-correlation      =  SLA  PW   PBE  PBE ( 1 4 3 4 0)
     EXX-fraction              =        0.00

     celldm(1)=   4.650000  celldm(2)=   0.000000  celldm(3)=   0.000000
     celldm(4)=   0.000000  celldm(5)=   0.000000  celldm(6)=   0.000000

     crystal axes: (cart. coord. in units of alat)
               a(1) = (   1.000000   0.000000   0.000000 )  
               a(2) = (   0.500000   0.866025   0.000000 )  
               a(3) = (   0.000000   0.000000  12.000000 )  

     reciprocal axes: (cart. coord. in units 2 pi/alat)
               b(1) = (  1.000000 -0.577350  0.000000 )  
               b(2) = (  0.000000  1.154701  0.000000 )  
               b(3) = (  0.000000  0.000000  0.083333 )  


     PseudoPot. # 1 for C  read from file:
     ./C.pbe-rrkjus.UPF
     MD5 check sum: 00fb224312de0c5b6853bd333518df6f
     Pseudo is Ultrasoft, Zval =  4.0
     Generated by new atomic code, or converted to UPF format
     Using radial grid of  627 points,  4 beta functions with: 
                l(1) =   0
                l(2) =   0
                l(3) =   1
                l(4) =   1
     Q(r) pseudized with 0 coefficients 


     atomic species   valence    mass     pseudopotential
        C              4.00    12.00000     C ( 1.00)

     24 Sym. Ops., with inversion, found (12 have fractional translation)



   Cartesian axes

     site n.     atom                  positions (alat units)
         1           C   tau(   1) = (   0.0000000   0.0000000   0.0000000  )
         2           C   tau(   2) = (   1.0000000   0.5773503   0.0000000  )

     number of k points=    16  gaussian smearing, width (Ry)=  0.0010
                       cart. coord. in units 2pi/alat
        k(    1) = (   0.0000000   0.0000000   0.0000000), wk =   0.0165289
        k(    2) = (   0.0000000   0.1049728   0.0000000), wk =   0.0991736
        k(    3) = (   0.0000000   0.2099456   0.0000000), wk =   0.0991736
        k(    4) = (   0.0000000   0.3149183   0.0000000), wk =   0.0991736
        k(    5) = (   0.0000000   0.4198911   0.0000000), wk =   0.0991736
        k(    6) = (   0.0000000   0.5248639   0.0000000), wk =   0.0991736
        k(    7) = (   0.0909091   0.1574592   0.0000000), wk =   0.0991736
        k(    8) = (   0.0909091   0.2624319   0.0000000), wk =   0.1983471
        k(    9) = (   0.0909091   0.3674047   0.0000000), wk =   0.1983471
        k(   10) = (   0.0909091   0.4723775   0.0000000), wk =   0.1983471
        k(   11) = (   0.0909091  -0.5773503   0.0000000), wk =   0.0991736
        k(   12) = (   0.1818182   0.3149183   0.0000000), wk =   0.0991736
        k(   13) = (   0.1818182   0.4198911   0.0000000), wk =   0.1983471
        k(   14) = (   0.1818182  -0.6298367   0.0000000), wk =   0.1983471
        k(   15) = (   0.2727273  -0.6823230   0.0000000), wk =   0.0991736
        k(   16) = (   0.2727273  -0.5773503   0.0000000), wk =   0.0991736

     Dense  grid:   234415 G-vectors     FFT dimensions: (  36,  36, 432)

     Smooth grid:    91585 G-vectors     FFT dimensions: (  25,  25, 320)

     Largest allocated arrays     est. size (Mb)     dimensions
        Kohn-Sham Wavefunctions         0.35 Mb     (   2897,    8)
        NL pseudopotentials             0.71 Mb     (   2897,   16)
        Each V/rho on FFT grid          2.14 Mb     ( 139968)
        Each G-vector array             0.45 Mb     (  58604)
        G-vector shells                 0.13 Mb     (  17455)
     Largest temporary arrays     est. size (Mb)     dimensions
        Auxiliary wavefunctions         1.41 Mb     (   2897,   32)
        Each subspace H/S matrix        0.02 Mb     (  32,  32)
        Each <psi_i|beta_j> matrix      0.00 Mb     (     16,    8)
        Arrays for rho mixing          17.09 Mb     ( 139968,   8)

     Initial potential from superposition of free atoms

     starting charge    7.99989, renormalised to    8.00000

     negative rho (up, down):  0.254E-04 0.000E+00
     Starting wfc are    8 randomized atomic wfcs

     total cpu time spent up to now is        4.3 secs

     per-process dynamical memory:    30.6 Mb

     Self-consistent Calculation

     iteration #  1     ecut=    75.00 Ry     beta=0.70
     Davidson diagonalization with overlap
     ethr =  1.00E-02,  avg # of iterations =  5.0

     negative rho (up, down):  0.178E-04 0.000E+00

     total cpu time spent up to now is       14.2 secs

     total energy              =     -22.75971445 Ry
     Harris-Foulkes estimate   =     -22.88416613 Ry
     estimated scf accuracy    <       0.20653892 Ry

     iteration #  2     ecut=    75.00 Ry     beta=0.70
     Davidson diagonalization with overlap
     ethr =  2.58E-03,  avg # of iterations =  4.6

     negative rho (up, down):  0.169E-04 0.000E+00

     total cpu time spent up to now is       22.2 secs

     total energy              =     -22.79082911 Ry
     Harris-Foulkes estimate   =     -22.79096403 Ry
     estimated scf accuracy    <       0.00250440 Ry

     iteration #  3     ecut=    75.00 Ry     beta=0.70
     Davidson diagonalization with overlap
     ethr =  3.13E-05,  avg # of iterations = 11.0

     negative rho (up, down):  0.186E-04 0.000E+00

     total cpu time spent up to now is       34.2 secs

     total energy              =     -22.79118347 Ry
     Harris-Foulkes estimate   =     -22.79115324 Ry
     estimated scf accuracy    <       0.00013798 Ry

     iteration #  4     ecut=    75.00 Ry     beta=0.70
     Davidson diagonalization with overlap
     ethr =  1.72E-06,  avg # of iterations =  5.4

     negative rho (up, down):  0.187E-04 0.000E+00

     total cpu time spent up to now is       42.4 secs

     total energy              =     -22.79118927 Ry
     Harris-Foulkes estimate   =     -22.79118845 Ry
     estimated scf accuracy    <       0.00000093 Ry

     iteration #  5     ecut=    75.00 Ry     beta=0.70
     Davidson diagonalization with overlap
     ethr =  1.17E-08,  avg # of iterations =  2.4

     negative rho (up, down):  0.187E-04 0.000E+00

     total cpu time spent up to now is       49.9 secs

     total energy              =     -22.79118963 Ry
     Harris-Foulkes estimate   =     -22.79118962 Ry
     estimated scf accuracy    <       0.00000003 Ry

     iteration #  6     ecut=    75.00 Ry     beta=0.70
     Davidson diagonalization with overlap
     ethr =  3.21E-10,  avg # of iterations =  2.0

     negative rho (up, down):  0.186E-04 0.000E+00

     total cpu time spent up to now is       56.8 secs

     End of self-consistent calculation

          k = 0.0000 0.0000 0.0000 ( 11445 PWs)   bands (ev):

   -22.4913 -10.6016  -6.0245  -6.0245   0.3036   1.0416   1.2090   1.5613

          k = 0.0000 0.1050 0.0000 ( 11529 PWs)   bands (ev):

   -22.2958 -10.3676  -6.7881  -6.4231   0.5697   1.3122   1.4825   1.8335

          k = 0.0000 0.2099 0.0000 ( 11547 PWs)   bands (ev):

   -21.7119  -9.6731  -8.6642  -7.3208   1.3677   2.1221   2.3031   2.6491

          k = 0.0000 0.3149 0.0000 ( 11511 PWs)   bands (ev):

   -20.7481 -11.0001  -8.5473  -8.2612   2.6940   3.3961   3.6707   3.7377

          k = 0.0000 0.4199 0.0000 ( 11451 PWs)   bands (ev):

   -19.4233 -13.3869  -8.9809  -7.0759   1.1532   4.4846   4.7876   5.3656

          k = 0.0000 0.5249 0.0000 ( 11434 PWs)   bands (ev):

   -17.8105 -15.5670  -9.3627  -5.6160  -0.8934   4.5252   6.9141   7.7518

          k = 0.0909 0.1575 0.0000 ( 11527 PWs)   bands (ev):

   -21.9061  -9.9032  -7.9610  -7.2204   1.1021   1.8526   2.0296   2.3774

          k = 0.0909 0.2624 0.0000 ( 11520 PWs)   bands (ev):

   -21.1323  -9.8739  -8.9909  -8.3364   2.1657   2.9284   3.1237   3.4631

          k = 0.0909 0.3674 0.0000 ( 11476 PWs)   bands (ev):

   -19.9875 -12.1526  -9.2505  -7.6788   2.2615   3.7533   4.5516   4.7647

          k = 0.0909 0.4724 0.0000 ( 11440 PWs)   bands (ev):

   -18.5049 -14.4197  -9.8304  -6.1258  -0.0537   5.4183   5.8936   6.6722

          k = 0.0909-0.5774 0.0000 ( 11428 PWs)   bands (ev):

   -17.1041 -16.0965 -10.0282  -5.1399  -1.3157   5.3452   8.3580   8.5233

          k = 0.1818 0.3149 0.0000 ( 11479 PWs)   bands (ev):

   -20.1774 -11.2752  -9.8839  -7.8846   2.7726   3.4922   4.2656   4.4914

          k = 0.1818 0.4199 0.0000 ( 11438 PWs)   bands (ev):

   -18.8700 -13.1335 -10.9650  -6.4307   0.6827   5.3330   6.0953   6.4058

          k = 0.1818-0.6298 0.0000 ( 11403 PWs)   bands (ev):

   -17.2910 -15.1280 -11.4388  -4.9348  -1.1779   7.4271   7.6973   8.1254

          k = 0.2727-0.6823 0.0000 ( 11398 PWs)   bands (ev):

   -17.4428 -14.1290 -12.5549  -4.9097  -0.9858   7.3886   7.6697   8.5928

          k = 0.2727-0.5774 0.0000 ( 11404 PWs)   bands (ev):

   -16.1047 -15.3483 -13.0898  -3.7232  -2.2118   7.8500   9.5495   9.6018

     the Fermi energy is    -2.4263 ev

!    total energy              =     -22.79118964 Ry
     Harris-Foulkes estimate   =     -22.79118964 Ry
     estimated scf accuracy    <          5.9E-10 Ry

     The total energy is the sum of the following terms:

     one-electron contribution =    -353.76109228 Ry
     hartree contribution      =     177.89030478 Ry
     xc contribution           =      -7.02464357 Ry
     ewald contribution        =     160.10424143 Ry
     smearing contrib. (-TS)   =      -0.00000000 Ry

     convergence has been achieved in   6 iterations

     Writing output data file graphene.save

     init_run     :      4.06s CPU      4.24s WALL (       1 calls)
     electrons    :     50.29s CPU     52.49s WALL (       1 calls)

     Called by init_run:
     wfcinit      :      1.62s CPU      1.69s WALL (       1 calls)
     potinit      :      1.09s CPU      1.11s WALL (       1 calls)

     Called by electrons:
     c_bands      :     34.38s CPU     35.62s WALL (       6 calls)
     sum_band     :      9.73s CPU     10.23s WALL (       6 calls)
     v_of_rho     :      2.57s CPU      2.83s WALL (       7 calls)
     newd         :      3.00s CPU      3.15s WALL (       7 calls)
     mix_rho      :      0.46s CPU      0.48s WALL (       6 calls)

     Called by c_bands:
     init_us_2    :      0.57s CPU      0.68s WALL (     208 calls)
     cegterg      :     33.62s CPU     34.69s WALL (      96 calls)

     Called by *egterg:
     h_psi        :     30.71s CPU     31.73s WALL (     600 calls)
     s_psi        :      0.57s CPU      0.57s WALL (     600 calls)
     g_psi        :      0.17s CPU      0.17s WALL (     488 calls)
     cdiaghg      :      0.27s CPU      0.26s WALL (     584 calls)

     Called by h_psi:
     add_vuspsi   :      0.55s CPU      0.56s WALL (     600 calls)

     General routines
     calbec       :      0.91s CPU      0.93s WALL (     696 calls)
     fft          :      2.57s CPU      2.77s WALL (     107 calls)
     ffts         :      0.09s CPU      0.10s WALL (      13 calls)
     fftw         :     20.95s CPU     21.91s WALL (    5888 calls)
     interpolate  :      0.52s CPU      0.53s WALL (      13 calls)
     davcio       :      0.18s CPU      0.23s WALL (     304 calls)

     Parallel routines
     fft_scatter  :     13.97s CPU     14.91s WALL (    6008 calls)

     PWSCF        :    54.68s CPU        57.07s WALL


   This run was terminated on:   2:45:42  26Jul2015            

=------------------------------------------------------------------------------=
   JOB DONE.
=------------------------------------------------------------------------------=
