
     Program PWSCF v.5.0.2 (svn rev. 9656) starts on 26Jul2015 at  3:38:33 

     This program is part of the open-source Quantum ESPRESSO suite
     for quantum simulation of materials; please cite
         "P. Giannozzi et al., J. Phys.:Condens. Matter 21 395502 (2009);
          URL http://www.quantum-espresso.org", 
     in publications or presentations arising from this work. More details at
     http://www.quantum-espresso.org/quote.php

     Parallel version (MPI), running on     4 processors
     R & G space division:  proc/nbgrp/npool/nimage =       4

     Current dimensions of program PWSCF are:
     Max number of different atomic species (ntypx) = 10
     Max number of k-points (npk) =  40000
     Max angular momentum in pseudopotentials (lmaxx) =  3
     Waiting for input...
     Reading input from standard input
               file C.pbe-rrkjus.UPF: wavefunction(s)  2S 2P renormalized

     Subspace diagonalization in iterative solution of the eigenvalue problem:
     a serial algorithm will be used


     Parallelization info
     --------------------
     sticks:   dense  smooth     PW     G-vecs:    dense   smooth      PW
     Min         211     142     40                58589    32653    5382
     Max         212     143     41                58614    32695    5435
     Sum         847     571    163               234415   130709   21665



     bravais-lattice index     =            0
     lattice parameter (alat)  =       4.6500  a.u.
     unit-cell volume          =    1044.8904 (a.u.)^3
     number of atoms/cell      =            2
     number of atomic types    =            1
     number of electrons       =         8.00
     number of Kohn-Sham states=            8
     kinetic-energy cutoff     =      95.0000  Ry
     charge density cutoff     =     560.0000  Ry
     convergence threshold     =      1.0E-08
     mixing beta               =       0.7000
     number of iterations used =            8  plain     mixing
     Exchange-correlation      =  SLA  PW   PBE  PBE ( 1 4 3 4 0)
     EXX-fraction              =        0.00

     celldm(1)=   4.650000  celldm(2)=   0.000000  celldm(3)=   0.000000
     celldm(4)=   0.000000  celldm(5)=   0.000000  celldm(6)=   0.000000

     crystal axes: (cart. coord. in units of alat)
               a(1) = (   1.000000   0.000000   0.000000 )  
               a(2) = (   0.500000   0.866025   0.000000 )  
               a(3) = (   0.000000   0.000000  12.000000 )  

     reciprocal axes: (cart. coord. in units 2 pi/alat)
               b(1) = (  1.000000 -0.577350  0.000000 )  
               b(2) = (  0.000000  1.154701  0.000000 )  
               b(3) = (  0.000000  0.000000  0.083333 )  


     PseudoPot. # 1 for C  read from file:
     ./C.pbe-rrkjus.UPF
     MD5 check sum: 00fb224312de0c5b6853bd333518df6f
     Pseudo is Ultrasoft, Zval =  4.0
     Generated by new atomic code, or converted to UPF format
     Using radial grid of  627 points,  4 beta functions with: 
                l(1) =   0
                l(2) =   0
                l(3) =   1
                l(4) =   1
     Q(r) pseudized with 0 coefficients 


     atomic species   valence    mass     pseudopotential
        C              4.00    12.00000     C ( 1.00)

     24 Sym. Ops., with inversion, found (12 have fractional translation)



   Cartesian axes

     site n.     atom                  positions (alat units)
         1           C   tau(   1) = (   0.0000000   0.0000000   0.0000000  )
         2           C   tau(   2) = (   1.0000000   0.5773503   0.0000000  )

     number of k points=    16  gaussian smearing, width (Ry)=  0.0010
                       cart. coord. in units 2pi/alat
        k(    1) = (   0.0000000   0.0000000   0.0000000), wk =   0.0165289
        k(    2) = (   0.0000000   0.1049728   0.0000000), wk =   0.0991736
        k(    3) = (   0.0000000   0.2099456   0.0000000), wk =   0.0991736
        k(    4) = (   0.0000000   0.3149183   0.0000000), wk =   0.0991736
        k(    5) = (   0.0000000   0.4198911   0.0000000), wk =   0.0991736
        k(    6) = (   0.0000000   0.5248639   0.0000000), wk =   0.0991736
        k(    7) = (   0.0909091   0.1574592   0.0000000), wk =   0.0991736
        k(    8) = (   0.0909091   0.2624319   0.0000000), wk =   0.1983471
        k(    9) = (   0.0909091   0.3674047   0.0000000), wk =   0.1983471
        k(   10) = (   0.0909091   0.4723775   0.0000000), wk =   0.1983471
        k(   11) = (   0.0909091  -0.5773503   0.0000000), wk =   0.0991736
        k(   12) = (   0.1818182   0.3149183   0.0000000), wk =   0.0991736
        k(   13) = (   0.1818182   0.4198911   0.0000000), wk =   0.1983471
        k(   14) = (   0.1818182  -0.6298367   0.0000000), wk =   0.1983471
        k(   15) = (   0.2727273  -0.6823230   0.0000000), wk =   0.0991736
        k(   16) = (   0.2727273  -0.5773503   0.0000000), wk =   0.0991736

     Dense  grid:   234415 G-vectors     FFT dimensions: (  36,  36, 432)

     Smooth grid:   130709 G-vectors     FFT dimensions: (  30,  30, 360)

     Largest allocated arrays     est. size (Mb)     dimensions
        Kohn-Sham Wavefunctions         0.52 Mb     (   4237,    8)
        NL pseudopotentials             1.03 Mb     (   4237,   16)
        Each V/rho on FFT grid          2.14 Mb     ( 139968)
        Each G-vector array             0.45 Mb     (  58604)
        G-vector shells                 0.14 Mb     (  17736)
     Largest temporary arrays     est. size (Mb)     dimensions
        Auxiliary wavefunctions         2.07 Mb     (   4237,   32)
        Each subspace H/S matrix        0.02 Mb     (  32,  32)
        Each <psi_i|beta_j> matrix      0.00 Mb     (     16,    8)
        Arrays for rho mixing          17.09 Mb     ( 139968,   8)

     Initial potential from superposition of free atoms

     starting charge    7.99989, renormalised to    8.00000

     negative rho (up, down):  0.254E-04 0.000E+00
     Starting wfc are    8 randomized atomic wfcs

     total cpu time spent up to now is        5.2 secs

     per-process dynamical memory:    37.5 Mb

     Self-consistent Calculation

     iteration #  1     ecut=    95.00 Ry     beta=0.70
     Davidson diagonalization with overlap
     ethr =  1.00E-02,  avg # of iterations =  4.6

     negative rho (up, down):  0.175E-04 0.000E+00

     total cpu time spent up to now is       20.0 secs

     total energy              =     -22.75975842 Ry
     Harris-Foulkes estimate   =     -22.88420803 Ry
     estimated scf accuracy    <       0.20653922 Ry

     iteration #  2     ecut=    95.00 Ry     beta=0.70
     Davidson diagonalization with overlap
     ethr =  2.58E-03,  avg # of iterations =  4.2

     negative rho (up, down):  0.171E-04 0.000E+00

     total cpu time spent up to now is       32.3 secs

     total energy              =     -22.79087143 Ry
     Harris-Foulkes estimate   =     -22.79100454 Ry
     estimated scf accuracy    <       0.00250595 Ry

     iteration #  3     ecut=    95.00 Ry     beta=0.70
     Davidson diagonalization with overlap
     c_bands:  1 eigenvalues not converged
     ethr =  3.13E-05,  avg # of iterations = 11.1

     negative rho (up, down):  0.186E-04 0.000E+00

     total cpu time spent up to now is       52.2 secs

     total energy              =     -22.79122830 Ry
     Harris-Foulkes estimate   =     -22.79119785 Ry
     estimated scf accuracy    <       0.00013792 Ry

     iteration #  4     ecut=    95.00 Ry     beta=0.70
     Davidson diagonalization with overlap
     ethr =  1.72E-06,  avg # of iterations =  3.7

     negative rho (up, down):  0.187E-04 0.000E+00

     total cpu time spent up to now is       63.9 secs

     total energy              =     -22.79123380 Ry
     Harris-Foulkes estimate   =     -22.79123295 Ry
     estimated scf accuracy    <       0.00000092 Ry

     iteration #  5     ecut=    95.00 Ry     beta=0.70
     Davidson diagonalization with overlap
     ethr =  1.15E-08,  avg # of iterations =  2.4

     negative rho (up, down):  0.187E-04 0.000E+00

     total cpu time spent up to now is       75.4 secs

     total energy              =     -22.79123412 Ry
     Harris-Foulkes estimate   =     -22.79123411 Ry
     estimated scf accuracy    <       0.00000003 Ry

     iteration #  6     ecut=    95.00 Ry     beta=0.70
     Davidson diagonalization with overlap
     ethr =  3.20E-10,  avg # of iterations =  2.0

     negative rho (up, down):  0.186E-04 0.000E+00

     total cpu time spent up to now is       85.5 secs

     End of self-consistent calculation

          k = 0.0000 0.0000 0.0000 ( 16331 PWs)   bands (ev):

   -22.4912 -10.6015  -6.0246  -6.0246   0.3036   1.0417   1.2090   1.5613

          k = 0.0000 0.1050 0.0000 ( 16357 PWs)   bands (ev):

   -22.2958 -10.3675  -6.7882  -6.4232   0.5697   1.3122   1.4825   1.8334

          k = 0.0000 0.2099 0.0000 ( 16317 PWs)   bands (ev):

   -21.7119  -9.6731  -8.6643  -7.3210   1.3678   2.1221   2.3031   2.6491

          k = 0.0000 0.3149 0.0000 ( 16292 PWs)   bands (ev):

   -20.7481 -11.0002  -8.5473  -8.2614   2.6941   3.3962   3.6707   3.7378

          k = 0.0000 0.4199 0.0000 ( 16348 PWs)   bands (ev):

   -19.4233 -13.3869  -8.9811  -7.0758   1.1533   4.4846   4.7877   5.3656

          k = 0.0000 0.5249 0.0000 ( 16354 PWs)   bands (ev):

   -17.8105 -15.5670  -9.3628  -5.6159  -0.8933   4.5252   6.9141   7.7518

          k = 0.0909 0.1575 0.0000 ( 16363 PWs)   bands (ev):

   -21.9061  -9.9031  -7.9611  -7.2205   1.1021   1.8526   2.0296   2.3774

          k = 0.0909 0.2624 0.0000 ( 16304 PWs)   bands (ev):

   -21.1323  -9.8740  -8.9908  -8.3365   2.1658   2.9285   3.1238   3.4631

          k = 0.0909 0.3674 0.0000 ( 16302 PWs)   bands (ev):

   -19.9875 -12.1527  -9.2506  -7.6787   2.2616   3.7533   4.5517   4.7647

          k = 0.0909 0.4724 0.0000 ( 16345 PWs)   bands (ev):

   -18.5049 -14.4198  -9.8305  -6.1258  -0.0536   5.4183   5.8937   6.6721

          k = 0.0909-0.5774 0.0000 ( 16378 PWs)   bands (ev):

   -17.1041 -16.0966 -10.0283  -5.1399  -1.3156   5.3452   8.3580   8.5234

          k = 0.1818 0.3149 0.0000 ( 16273 PWs)   bands (ev):

   -20.1774 -11.2753  -9.8840  -7.8845   2.7727   3.4922   4.2658   4.4914

          k = 0.1818 0.4199 0.0000 ( 16335 PWs)   bands (ev):

   -18.8700 -13.1335 -10.9651  -6.4307   0.6828   5.3330   6.0953   6.4058

          k = 0.1818-0.6298 0.0000 ( 16371 PWs)   bands (ev):

   -17.2910 -15.1280 -11.4389  -4.9348  -1.1778   7.4270   7.6973   8.1255

          k = 0.2727-0.6823 0.0000 ( 16377 PWs)   bands (ev):

   -17.4428 -14.1291 -12.5550  -4.9097  -0.9857   7.3886   7.6698   8.5930

          k = 0.2727-0.5774 0.0000 ( 16395 PWs)   bands (ev):

   -16.1047 -15.3484 -13.0898  -3.7232  -2.2117   7.8500   9.5495   9.6018

     the Fermi energy is    -2.4263 ev

!    total energy              =     -22.79123412 Ry
     Harris-Foulkes estimate   =     -22.79123412 Ry
     estimated scf accuracy    <          7.9E-10 Ry

     The total energy is the sum of the following terms:

     one-electron contribution =    -353.76118140 Ry
     hartree contribution      =     177.89028659 Ry
     xc contribution           =      -7.02458074 Ry
     ewald contribution        =     160.10424143 Ry
     smearing contrib. (-TS)   =      -0.00000000 Ry

     convergence has been achieved in   6 iterations

     Writing output data file graphene.save

     init_run     :      5.03s CPU      5.16s WALL (       1 calls)
     electrons    :     76.96s CPU     80.28s WALL (       1 calls)

     Called by init_run:
     wfcinit      :      2.62s CPU      2.68s WALL (       1 calls)
     potinit      :      1.08s CPU      1.10s WALL (       1 calls)

     Called by electrons:
     c_bands      :     57.26s CPU     59.58s WALL (       6 calls)
     sum_band     :     13.42s CPU     13.99s WALL (       6 calls)
     v_of_rho     :      2.69s CPU      2.88s WALL (       7 calls)
     newd         :      3.08s CPU      3.18s WALL (       7 calls)
     mix_rho      :      0.49s CPU      0.50s WALL (       6 calls)

     Called by c_bands:
     init_us_2    :      0.71s CPU      0.85s WALL (     208 calls)
     cegterg      :     56.29s CPU     58.35s WALL (      96 calls)

     Called by *egterg:
     h_psi        :     53.33s CPU     55.27s WALL (     561 calls)
     s_psi        :      0.72s CPU      0.72s WALL (     561 calls)
     g_psi        :      0.26s CPU      0.26s WALL (     449 calls)
     cdiaghg      :      0.26s CPU      0.26s WALL (     545 calls)

     Called by h_psi:
     add_vuspsi   :      0.70s CPU      0.72s WALL (     561 calls)

     General routines
     calbec       :      0.98s CPU      1.04s WALL (     657 calls)
     fft          :      2.51s CPU      2.67s WALL (     107 calls)
     ffts         :      0.17s CPU      0.18s WALL (      13 calls)
     fftw         :     48.27s CPU     50.31s WALL (    5792 calls)
     interpolate  :      0.54s CPU      0.58s WALL (      13 calls)
     davcio       :      0.21s CPU      0.29s WALL (     304 calls)

     Parallel routines
     fft_scatter  :     19.71s CPU     21.68s WALL (    5912 calls)

     PWSCF        :  1m22.28s CPU     1m25.77s WALL


   This run was terminated on:   3:39:59  26Jul2015            

=------------------------------------------------------------------------------=
   JOB DONE.
=------------------------------------------------------------------------------=
