
     Program PWSCF v.5.0.2 (svn rev. 9656) starts on 26Jul2015 at  3:50: 5 

     This program is part of the open-source Quantum ESPRESSO suite
     for quantum simulation of materials; please cite
         "P. Giannozzi et al., J. Phys.:Condens. Matter 21 395502 (2009);
          URL http://www.quantum-espresso.org", 
     in publications or presentations arising from this work. More details at
     http://www.quantum-espresso.org/quote.php

     Parallel version (MPI), running on     4 processors
     R & G space division:  proc/nbgrp/npool/nimage =       4

     Current dimensions of program PWSCF are:
     Max number of different atomic species (ntypx) = 10
     Max number of k-points (npk) =  40000
     Max angular momentum in pseudopotentials (lmaxx) =  3
     Waiting for input...
     Reading input from standard input
               file C.pbe-rrkjus.UPF: wavefunction(s)  2S 2P renormalized

     Subspace diagonalization in iterative solution of the eigenvalue problem:
     a serial algorithm will be used


     Parallelization info
     --------------------
     sticks:   dense  smooth     PW     G-vecs:    dense   smooth      PW
     Min         211     145     42                58589    34697    5636
     Max         212     146     43                58614    34772    5650
     Sum         847     583    169               234415   138983   22573



     bravais-lattice index     =            0
     lattice parameter (alat)  =       4.6500  a.u.
     unit-cell volume          =    1044.8904 (a.u.)^3
     number of atoms/cell      =            2
     number of atomic types    =            1
     number of electrons       =         8.00
     number of Kohn-Sham states=            8
     kinetic-energy cutoff     =      99.0000  Ry
     charge density cutoff     =     560.0000  Ry
     convergence threshold     =      1.0E-08
     mixing beta               =       0.7000
     number of iterations used =            8  plain     mixing
     Exchange-correlation      =  SLA  PW   PBE  PBE ( 1 4 3 4 0)
     EXX-fraction              =        0.00

     celldm(1)=   4.650000  celldm(2)=   0.000000  celldm(3)=   0.000000
     celldm(4)=   0.000000  celldm(5)=   0.000000  celldm(6)=   0.000000

     crystal axes: (cart. coord. in units of alat)
               a(1) = (   1.000000   0.000000   0.000000 )  
               a(2) = (   0.500000   0.866025   0.000000 )  
               a(3) = (   0.000000   0.000000  12.000000 )  

     reciprocal axes: (cart. coord. in units 2 pi/alat)
               b(1) = (  1.000000 -0.577350  0.000000 )  
               b(2) = (  0.000000  1.154701  0.000000 )  
               b(3) = (  0.000000  0.000000  0.083333 )  


     PseudoPot. # 1 for C  read from file:
     ./C.pbe-rrkjus.UPF
     MD5 check sum: 00fb224312de0c5b6853bd333518df6f
     Pseudo is Ultrasoft, Zval =  4.0
     Generated by new atomic code, or converted to UPF format
     Using radial grid of  627 points,  4 beta functions with: 
                l(1) =   0
                l(2) =   0
                l(3) =   1
                l(4) =   1
     Q(r) pseudized with 0 coefficients 


     atomic species   valence    mass     pseudopotential
        C              4.00    12.00000     C ( 1.00)

     24 Sym. Ops., with inversion, found (12 have fractional translation)



   Cartesian axes

     site n.     atom                  positions (alat units)
         1           C   tau(   1) = (   0.0000000   0.0000000   0.0000000  )
         2           C   tau(   2) = (   1.0000000   0.5773503   0.0000000  )

     number of k points=     8  gaussian smearing, width (Ry)=  0.0010
                       cart. coord. in units 2pi/alat
        k(    1) = (   0.0000000   0.0000000   0.0000000), wk =   0.0408163
        k(    2) = (   0.0000000   0.1649572   0.0000000), wk =   0.2448980
        k(    3) = (   0.0000000   0.3299144   0.0000000), wk =   0.2448980
        k(    4) = (   0.0000000   0.4948717   0.0000000), wk =   0.2448980
        k(    5) = (   0.1428571   0.2474358   0.0000000), wk =   0.2448980
        k(    6) = (   0.1428571   0.4123931   0.0000000), wk =   0.4897959
        k(    7) = (   0.1428571  -0.5773503   0.0000000), wk =   0.2448980
        k(    8) = (   0.2857143  -0.6598289   0.0000000), wk =   0.2448980

     Dense  grid:   234415 G-vectors     FFT dimensions: (  36,  36, 432)

     Smooth grid:   138983 G-vectors     FFT dimensions: (  30,  30, 360)

     Largest allocated arrays     est. size (Mb)     dimensions
        Kohn-Sham Wavefunctions         0.55 Mb     (   4493,    8)
        NL pseudopotentials             1.10 Mb     (   4493,   16)
        Each V/rho on FFT grid          2.14 Mb     ( 139968)
        Each G-vector array             0.45 Mb     (  58604)
        G-vector shells                 0.13 Mb     (  17362)
     Largest temporary arrays     est. size (Mb)     dimensions
        Auxiliary wavefunctions         2.19 Mb     (   4493,   32)
        Each subspace H/S matrix        0.02 Mb     (  32,  32)
        Each <psi_i|beta_j> matrix      0.00 Mb     (     16,    8)
        Arrays for rho mixing          17.09 Mb     ( 139968,   8)

     Initial potential from superposition of free atoms

     starting charge    7.99989, renormalised to    8.00000

     negative rho (up, down):  0.254E-04 0.000E+00
     Starting wfc are    8 randomized atomic wfcs

     total cpu time spent up to now is        3.9 secs

     per-process dynamical memory:    37.6 Mb

     Self-consistent Calculation

     iteration #  1     ecut=    99.00 Ry     beta=0.70
     Davidson diagonalization with overlap
     ethr =  1.00E-02,  avg # of iterations =  6.2

     negative rho (up, down):  0.178E-04 0.000E+00

     total cpu time spent up to now is       11.1 secs

     total energy              =     -22.76058315 Ry
     Harris-Foulkes estimate   =     -22.88511885 Ry
     estimated scf accuracy    <       0.20670711 Ry

     iteration #  2     ecut=    99.00 Ry     beta=0.70
     Davidson diagonalization with overlap
     ethr =  2.58E-03,  avg # of iterations =  3.6

     negative rho (up, down):  0.171E-04 0.000E+00

     total cpu time spent up to now is       18.1 secs

     total energy              =     -22.79178581 Ry
     Harris-Foulkes estimate   =     -22.79192529 Ry
     estimated scf accuracy    <       0.00251663 Ry

     iteration #  3     ecut=    99.00 Ry     beta=0.70
     Davidson diagonalization with overlap
     ethr =  3.15E-05,  avg # of iterations = 13.4

     negative rho (up, down):  0.186E-04 0.000E+00

     total cpu time spent up to now is       29.9 secs

     total energy              =     -22.79213629 Ry
     Harris-Foulkes estimate   =     -22.79210490 Ry
     estimated scf accuracy    <       0.00013798 Ry

     iteration #  4     ecut=    99.00 Ry     beta=0.70
     Davidson diagonalization with overlap
     ethr =  1.72E-06,  avg # of iterations =  3.9

     negative rho (up, down):  0.187E-04 0.000E+00

     total cpu time spent up to now is       36.9 secs

     total energy              =     -22.79214195 Ry
     Harris-Foulkes estimate   =     -22.79214109 Ry
     estimated scf accuracy    <       0.00000093 Ry

     iteration #  5     ecut=    99.00 Ry     beta=0.70
     Davidson diagonalization with overlap
     ethr =  1.16E-08,  avg # of iterations =  2.6

     negative rho (up, down):  0.187E-04 0.000E+00

     total cpu time spent up to now is       43.9 secs

     total energy              =     -22.79214231 Ry
     Harris-Foulkes estimate   =     -22.79214230 Ry
     estimated scf accuracy    <       0.00000003 Ry

     iteration #  6     ecut=    99.00 Ry     beta=0.70
     Davidson diagonalization with overlap
     ethr =  3.27E-10,  avg # of iterations =  1.9

     negative rho (up, down):  0.186E-04 0.000E+00

     total cpu time spent up to now is       50.2 secs

     End of self-consistent calculation

          k = 0.0000 0.0000 0.0000 ( 17511 PWs)   bands (ev):

   -22.4924 -10.6025  -6.0259  -6.0259   0.3034   1.0417   1.2091   1.5614

          k = 0.0000 0.1650 0.0000 ( 17431 PWs)   bands (ev):

   -22.0104 -10.0269  -7.7716  -6.9093   0.9605   1.7093   1.8845   2.2331

          k = 0.0000 0.3299 0.0000 ( 17395 PWs)   bands (ev):

   -20.5814 -11.3458  -8.3828  -8.3558   2.9257   3.2617   3.7637   3.9107

          k = 0.0000 0.4949 0.0000 ( 17348 PWs)   bands (ev):

   -18.2876 -14.9864  -9.2930  -5.9780  -0.4222   4.5571   6.1955   7.0211

          k = 0.1429 0.2474 0.0000 ( 17403 PWs)   bands (ev):

   -21.0550  -9.8607  -8.8994  -8.6677   2.2745   3.0395   3.2355   3.5748

          k = 0.1429 0.4124 0.0000 ( 17398 PWs)   bands (ev):

   -19.1869 -13.0476 -10.2899  -6.7864   1.0522   4.8826   5.6704   5.9370

          k = 0.1429-0.5774 0.0000 ( 17358 PWs)   bands (ev):

   -16.9213 -15.9216 -10.8079  -4.8786  -1.4170   6.4394   8.6030   8.7889

          k = 0.2857-0.6598 0.0000 ( 17313 PWs)   bands (ev):

   -16.9998 -14.4700 -12.8689  -4.4617  -1.4509   7.8166   8.0382   9.3119

     the Fermi energy is    -2.6079 ev

!    total energy              =     -22.79214231 Ry
     Harris-Foulkes estimate   =     -22.79214231 Ry
     estimated scf accuracy    <          4.8E-10 Ry

     The total energy is the sum of the following terms:

     one-electron contribution =    -353.76150833 Ry
     hartree contribution      =     177.88964136 Ry
     xc contribution           =      -7.02451677 Ry
     ewald contribution        =     160.10424143 Ry
     smearing contrib. (-TS)   =      -0.00000000 Ry

     convergence has been achieved in   6 iterations

     Writing output data file graphene.save

     init_run     :      3.68s CPU      3.84s WALL (       1 calls)
     electrons    :     44.66s CPU     46.29s WALL (       1 calls)

     Called by init_run:
     wfcinit      :      1.30s CPU      1.36s WALL (       1 calls)
     potinit      :      1.07s CPU      1.11s WALL (       1 calls)

     Called by electrons:
     c_bands      :     30.33s CPU     31.22s WALL (       6 calls)
     sum_band     :      8.26s CPU      8.65s WALL (       6 calls)
     v_of_rho     :      2.51s CPU      2.65s WALL (       7 calls)
     newd         :      3.00s CPU      3.13s WALL (       7 calls)
     mix_rho      :      0.47s CPU      0.50s WALL (       6 calls)

     Called by c_bands:
     init_us_2    :      0.38s CPU      0.47s WALL (     104 calls)
     cegterg      :     29.78s CPU     30.58s WALL (      48 calls)

     Called by *egterg:
     h_psi        :     28.01s CPU     28.75s WALL (     309 calls)
     s_psi        :      0.41s CPU      0.40s WALL (     309 calls)
     g_psi        :      0.14s CPU      0.14s WALL (     253 calls)
     cdiaghg      :      0.14s CPU      0.14s WALL (     301 calls)

     Called by h_psi:
     add_vuspsi   :      0.40s CPU      0.40s WALL (     309 calls)

     General routines
     calbec       :      0.55s CPU      0.57s WALL (     357 calls)
     fft          :      2.40s CPU      2.52s WALL (     107 calls)
     ffts         :      0.17s CPU      0.17s WALL (      13 calls)
     fftw         :     24.65s CPU     25.55s WALL (    2956 calls)
     interpolate  :      0.54s CPU      0.55s WALL (      13 calls)
     davcio       :      0.11s CPU      0.16s WALL (     152 calls)

     Parallel routines
     fft_scatter  :     10.49s CPU     11.41s WALL (    3076 calls)

     PWSCF        :    48.59s CPU        50.43s WALL


   This run was terminated on:   3:50:55  26Jul2015            

=------------------------------------------------------------------------------=
   JOB DONE.
=------------------------------------------------------------------------------=
