
     Program PWSCF v.5.0.2 (svn rev. 9656) starts on 26Jul2015 at  3:34:26 

     This program is part of the open-source Quantum ESPRESSO suite
     for quantum simulation of materials; please cite
         "P. Giannozzi et al., J. Phys.:Condens. Matter 21 395502 (2009);
          URL http://www.quantum-espresso.org", 
     in publications or presentations arising from this work. More details at
     http://www.quantum-espresso.org/quote.php

     Parallel version (MPI), running on     4 processors
     R & G space division:  proc/nbgrp/npool/nimage =       4

     Current dimensions of program PWSCF are:
     Max number of different atomic species (ntypx) = 10
     Max number of k-points (npk) =  40000
     Max angular momentum in pseudopotentials (lmaxx) =  3
     Waiting for input...
     Reading input from standard input
               file C.pbe-rrkjus.UPF: wavefunction(s)  2S 2P renormalized

     Subspace diagonalization in iterative solution of the eigenvalue problem:
     a serial algorithm will be used


     Parallelization info
     --------------------
     sticks:   dense  smooth     PW     G-vecs:    dense   smooth      PW
     Min         211     142     40                58589    32659    5356
     Max         212     143     41                58614    32689    5409
     Sum         847     571    163               234415   130709   21569



     bravais-lattice index     =            0
     lattice parameter (alat)  =       4.6500  a.u.
     unit-cell volume          =    1044.8904 (a.u.)^3
     number of atoms/cell      =            2
     number of atomic types    =            1
     number of electrons       =         8.00
     number of Kohn-Sham states=            8
     kinetic-energy cutoff     =      95.0000  Ry
     charge density cutoff     =     560.0000  Ry
     convergence threshold     =      1.0E-08
     mixing beta               =       0.7000
     number of iterations used =            8  plain     mixing
     Exchange-correlation      =  SLA  PW   PBE  PBE ( 1 4 3 4 0)
     EXX-fraction              =        0.00

     celldm(1)=   4.650000  celldm(2)=   0.000000  celldm(3)=   0.000000
     celldm(4)=   0.000000  celldm(5)=   0.000000  celldm(6)=   0.000000

     crystal axes: (cart. coord. in units of alat)
               a(1) = (   1.000000   0.000000   0.000000 )  
               a(2) = (   0.500000   0.866025   0.000000 )  
               a(3) = (   0.000000   0.000000  12.000000 )  

     reciprocal axes: (cart. coord. in units 2 pi/alat)
               b(1) = (  1.000000 -0.577350  0.000000 )  
               b(2) = (  0.000000  1.154701  0.000000 )  
               b(3) = (  0.000000  0.000000  0.083333 )  


     PseudoPot. # 1 for C  read from file:
     ./C.pbe-rrkjus.UPF
     MD5 check sum: 00fb224312de0c5b6853bd333518df6f
     Pseudo is Ultrasoft, Zval =  4.0
     Generated by new atomic code, or converted to UPF format
     Using radial grid of  627 points,  4 beta functions with: 
                l(1) =   0
                l(2) =   0
                l(3) =   1
                l(4) =   1
     Q(r) pseudized with 0 coefficients 


     atomic species   valence    mass     pseudopotential
        C              4.00    12.00000     C ( 1.00)

     24 Sym. Ops., with inversion, found (12 have fractional translation)



   Cartesian axes

     site n.     atom                  positions (alat units)
         1           C   tau(   1) = (   0.0000000   0.0000000   0.0000000  )
         2           C   tau(   2) = (   1.0000000   0.5773503   0.0000000  )

     number of k points=     8  gaussian smearing, width (Ry)=  0.0010
                       cart. coord. in units 2pi/alat
        k(    1) = (   0.0000000   0.0000000   0.0000000), wk =   0.0408163
        k(    2) = (   0.0000000   0.1649572   0.0000000), wk =   0.2448980
        k(    3) = (   0.0000000   0.3299144   0.0000000), wk =   0.2448980
        k(    4) = (   0.0000000   0.4948717   0.0000000), wk =   0.2448980
        k(    5) = (   0.1428571   0.2474358   0.0000000), wk =   0.2448980
        k(    6) = (   0.1428571   0.4123931   0.0000000), wk =   0.4897959
        k(    7) = (   0.1428571  -0.5773503   0.0000000), wk =   0.2448980
        k(    8) = (   0.2857143  -0.6598289   0.0000000), wk =   0.2448980

     Dense  grid:   234415 G-vectors     FFT dimensions: (  36,  36, 432)

     Smooth grid:   130709 G-vectors     FFT dimensions: (  30,  30, 360)

     Largest allocated arrays     est. size (Mb)     dimensions
        Kohn-Sham Wavefunctions         0.50 Mb     (   4136,    8)
        NL pseudopotentials             1.01 Mb     (   4136,   16)
        Each V/rho on FFT grid          2.14 Mb     ( 139968)
        Each G-vector array             0.45 Mb     (  58604)
        G-vector shells                 0.13 Mb     (  17493)
     Largest temporary arrays     est. size (Mb)     dimensions
        Auxiliary wavefunctions         2.02 Mb     (   4136,   32)
        Each subspace H/S matrix        0.02 Mb     (  32,  32)
        Each <psi_i|beta_j> matrix      0.00 Mb     (     16,    8)
        Arrays for rho mixing          17.09 Mb     ( 139968,   8)

     Initial potential from superposition of free atoms

     starting charge    7.99989, renormalised to    8.00000

     negative rho (up, down):  0.254E-04 0.000E+00
     Starting wfc are    8 randomized atomic wfcs

     total cpu time spent up to now is        6.4 secs

     per-process dynamical memory:    37.5 Mb

     Self-consistent Calculation

     iteration #  1     ecut=    95.00 Ry     beta=0.70
     Davidson diagonalization with overlap
     ethr =  1.00E-02,  avg # of iterations =  4.8

     negative rho (up, down):  0.173E-04 0.000E+00

     total cpu time spent up to now is       17.3 secs

     total energy              =     -22.76060487 Ry
     Harris-Foulkes estimate   =     -22.88511363 Ry
     estimated scf accuracy    <       0.20667797 Ry

     iteration #  2     ecut=    95.00 Ry     beta=0.70
     Davidson diagonalization with overlap
     ethr =  2.58E-03,  avg # of iterations =  4.6

     negative rho (up, down):  0.170E-04 0.000E+00

     total cpu time spent up to now is       22.8 secs

     total energy              =     -22.79179997 Ry
     Harris-Foulkes estimate   =     -22.79193398 Ry
     estimated scf accuracy    <       0.00249512 Ry

     iteration #  3     ecut=    95.00 Ry     beta=0.70
     Davidson diagonalization with overlap
     ethr =  3.12E-05,  avg # of iterations = 14.2

     negative rho (up, down):  0.186E-04 0.000E+00

     total cpu time spent up to now is       31.6 secs

     total energy              =     -22.79213477 Ry
     Harris-Foulkes estimate   =     -22.79210450 Ry
     estimated scf accuracy    <       0.00014079 Ry

     iteration #  4     ecut=    95.00 Ry     beta=0.70
     Davidson diagonalization with overlap
     ethr =  1.76E-06,  avg # of iterations =  4.6

     negative rho (up, down):  0.187E-04 0.000E+00

     total cpu time spent up to now is       36.9 secs

     total energy              =     -22.79214036 Ry
     Harris-Foulkes estimate   =     -22.79213956 Ry
     estimated scf accuracy    <       0.00000084 Ry

     iteration #  5     ecut=    95.00 Ry     beta=0.70
     Davidson diagonalization with overlap
     ethr =  1.05E-08,  avg # of iterations =  2.6

     negative rho (up, down):  0.187E-04 0.000E+00

     total cpu time spent up to now is       42.5 secs

     total energy              =     -22.79214069 Ry
     Harris-Foulkes estimate   =     -22.79214069 Ry
     estimated scf accuracy    <       0.00000002 Ry

     iteration #  6     ecut=    95.00 Ry     beta=0.70
     Davidson diagonalization with overlap
     ethr =  3.09E-10,  avg # of iterations =  2.0

     negative rho (up, down):  0.186E-04 0.000E+00

     total cpu time spent up to now is       48.5 secs

     End of self-consistent calculation

          k = 0.0000 0.0000 0.0000 ( 16331 PWs)   bands (ev):

   -22.4923 -10.6025  -6.0259  -6.0259   0.3034   1.0417   1.2091   1.5614

          k = 0.0000 0.1650 0.0000 ( 16379 PWs)   bands (ev):

   -22.0104 -10.0269  -7.7715  -6.9093   0.9605   1.7093   1.8845   2.2332

          k = 0.0000 0.3299 0.0000 ( 16310 PWs)   bands (ev):

   -20.5814 -11.3458  -8.3828  -8.3558   2.9257   3.2617   3.7637   3.9107

          k = 0.0000 0.4949 0.0000 ( 16368 PWs)   bands (ev):

   -18.2876 -14.9864  -9.2929  -5.9780  -0.4222   4.5571   6.1955   7.0210

          k = 0.1429 0.2474 0.0000 ( 16317 PWs)   bands (ev):

   -21.0550  -9.8606  -8.8994  -8.6677   2.2745   3.0395   3.2355   3.5750

          k = 0.1429 0.4124 0.0000 ( 16318 PWs)   bands (ev):

   -19.1869 -13.0475 -10.2899  -6.7864   1.0522   4.8826   5.6704   5.9369

          k = 0.1429-0.5774 0.0000 ( 16346 PWs)   bands (ev):

   -16.9212 -15.9216 -10.8079  -4.8786  -1.4170   6.4394   8.6029   8.7889

          k = 0.2857-0.6598 0.0000 ( 16373 PWs)   bands (ev):

   -16.9997 -14.4700 -12.8689  -4.4617  -1.4509   7.8166   8.0382   9.3125

     the Fermi energy is    -2.6075 ev

!    total energy              =     -22.79214069 Ry
     Harris-Foulkes estimate   =     -22.79214070 Ry
     estimated scf accuracy    <          4.9E-10 Ry

     The total energy is the sum of the following terms:

     one-electron contribution =    -353.76151277 Ry
     hartree contribution      =     177.88964506 Ry
     xc contribution           =      -7.02451442 Ry
     ewald contribution        =     160.10424143 Ry
     smearing contrib. (-TS)   =      -0.00000000 Ry

     convergence has been achieved in   6 iterations

     Writing output data file graphene.save

     init_run     :      3.63s CPU      6.22s WALL (       1 calls)
     electrons    :     36.15s CPU     42.17s WALL (       1 calls)

     Called by init_run:
     wfcinit      :      1.20s CPU      2.30s WALL (       1 calls)
     potinit      :      1.09s CPU      1.73s WALL (       1 calls)

     Called by electrons:
     c_bands      :     24.93s CPU     29.34s WALL (       6 calls)
     sum_band     :      6.37s CPU      7.29s WALL (       6 calls)
     v_of_rho     :      2.20s CPU      2.73s WALL (       7 calls)
     newd         :      2.23s CPU      2.49s WALL (       7 calls)
     mix_rho      :      0.32s CPU      0.39s WALL (       6 calls)

     Called by c_bands:
     init_us_2    :      0.35s CPU      0.42s WALL (     104 calls)
     cegterg      :     24.47s CPU     28.77s WALL (      48 calls)

     Called by *egterg:
     h_psi        :     23.29s CPU     28.27s WALL (     319 calls)
     s_psi        :      0.30s CPU      0.28s WALL (     319 calls)
     g_psi        :      0.13s CPU      0.14s WALL (     263 calls)
     cdiaghg      :      0.13s CPU      0.17s WALL (     311 calls)

     Called by h_psi:
     add_vuspsi   :      0.28s CPU      0.31s WALL (     319 calls)

     General routines
     calbec       :      0.44s CPU      0.60s WALL (     367 calls)
     fft          :      1.97s CPU      2.65s WALL (     107 calls)
     ffts         :      0.15s CPU      0.18s WALL (      13 calls)
     fftw         :     22.08s CPU     27.21s WALL (    2976 calls)
     interpolate  :      0.46s CPU      0.56s WALL (      13 calls)
     davcio       :      0.06s CPU      0.12s WALL (     152 calls)

     Parallel routines
     fft_scatter  :      7.65s CPU     12.20s WALL (    3096 calls)

     PWSCF        :    40.06s CPU        48.79s WALL


   This run was terminated on:   3:35:15  26Jul2015            

=------------------------------------------------------------------------------=
   JOB DONE.
=------------------------------------------------------------------------------=
