
     Program PWSCF v.5.0.2 (svn rev. 9656) starts on 12Jul2015 at  2:15:29 

     This program is part of the open-source Quantum ESPRESSO suite
     for quantum simulation of materials; please cite
         "P. Giannozzi et al., J. Phys.:Condens. Matter 21 395502 (2009);
          URL http://www.quantum-espresso.org", 
     in publications or presentations arising from this work. More details at
     http://www.quantum-espresso.org/quote.php

     Parallel version (MPI), running on     4 processors
     R & G space division:  proc/nbgrp/npool/nimage =       4

     Current dimensions of program PWSCF are:
     Max number of different atomic species (ntypx) = 10
     Max number of k-points (npk) =  40000
     Max angular momentum in pseudopotentials (lmaxx) =  3
     Waiting for input...
     Reading input from standard input
               file Al.pbe-n-kjpaw_psl.0.1.UPF: wavefunction(s)  3S renormalized

     Subspace diagonalization in iterative solution of the eigenvalue problem:
     a serial algorithm will be used


     Parallelization info
     --------------------
     sticks:   dense  smooth     PW     G-vecs:    dense   smooth      PW
     Min         139     139     46                 2198     2198     397
     Max         140     140     47                 2201     2201     398
     Sum         559     559    187                 8801     8801    1591



     bravais-lattice index     =            2
     lattice parameter (alat)  =       7.6300  a.u.
     unit-cell volume          =     111.0487 (a.u.)^3
     number of atoms/cell      =            1
     number of atomic types    =            1
     number of electrons       =         3.00
     number of Kohn-Sham states=            6
     kinetic-energy cutoff     =      70.0000  Ry
     charge density cutoff     =     280.0000  Ry
     convergence threshold     =      1.0E-07
     mixing beta               =       0.7000
     number of iterations used =            8  plain     mixing
     Exchange-correlation      =  SLA  PW   PBX  PBC ( 1 4 3 4 0)
     EXX-fraction              =        0.00

     celldm(1)=   7.630000  celldm(2)=   0.000000  celldm(3)=   0.000000
     celldm(4)=   0.000000  celldm(5)=   0.000000  celldm(6)=   0.000000

     crystal axes: (cart. coord. in units of alat)
               a(1) = (  -0.500000   0.000000   0.500000 )  
               a(2) = (   0.000000   0.500000   0.500000 )  
               a(3) = (  -0.500000   0.500000   0.000000 )  

     reciprocal axes: (cart. coord. in units 2 pi/alat)
               b(1) = ( -1.000000 -1.000000  1.000000 )  
               b(2) = (  1.000000  1.000000  1.000000 )  
               b(3) = ( -1.000000  1.000000 -1.000000 )  


     PseudoPot. # 1 for Al read from file:
     ./Al.pbe-n-kjpaw_psl.0.1.UPF
     MD5 check sum: 023d9faf819c76fc4df1f064efe7b7b2
     Pseudo is Projector augmented-wave + core cor, Zval =  3.0
     Generated using "atomic" code by A. Dal Corso  v.5.0.2 svn rev. 9415
     Shape of augmentation charge: PSQ
     Using radial grid of 1135 points,  4 beta functions with: 
                l(1) =   0
                l(2) =   0
                l(3) =   1
                l(4) =   1
     Q(r) pseudized with 0 coefficients 


     atomic species   valence    mass     pseudopotential
        Al             3.00    26.98154     Al( 1.00)

     48 Sym. Ops., with inversion, found



   Cartesian axes

     site n.     atom                  positions (alat units)
         1           Al  tau(   1) = (   0.0000000   0.0000000   0.0000000  )

     number of k points=    84  gaussian smearing, width (Ry)=  0.0030
                       cart. coord. in units 2pi/alat
        k(    1) = (   0.0000000   0.0000000   0.0000000), wk =   0.0009103
        k(    2) = (  -0.0769231   0.0769231  -0.0769231), wk =   0.0072827
        k(    3) = (  -0.1538462   0.1538462  -0.1538462), wk =   0.0072827
        k(    4) = (  -0.2307692   0.2307692  -0.2307692), wk =   0.0072827
        k(    5) = (  -0.3076923   0.3076923  -0.3076923), wk =   0.0072827
        k(    6) = (  -0.3846154   0.3846154  -0.3846154), wk =   0.0072827
        k(    7) = (  -0.4615385   0.4615385  -0.4615385), wk =   0.0072827
        k(    8) = (   0.0000000   0.1538462   0.0000000), wk =   0.0054620
        k(    9) = (  -0.0769231   0.2307692  -0.0769231), wk =   0.0218480
        k(   10) = (  -0.1538462   0.3076923  -0.1538462), wk =   0.0218480
        k(   11) = (  -0.2307692   0.3846154  -0.2307692), wk =   0.0218480
        k(   12) = (  -0.3076923   0.4615385  -0.3076923), wk =   0.0218480
        k(   13) = (  -0.3846154   0.5384615  -0.3846154), wk =   0.0218480
        k(   14) = (   0.5384615  -0.3846154   0.5384615), wk =   0.0218480
        k(   15) = (   0.4615385  -0.3076923   0.4615385), wk =   0.0218480
        k(   16) = (   0.3846154  -0.2307692   0.3846154), wk =   0.0218480
        k(   17) = (   0.3076923  -0.1538462   0.3076923), wk =   0.0218480
        k(   18) = (   0.2307692  -0.0769231   0.2307692), wk =   0.0218480
        k(   19) = (   0.1538462   0.0000000   0.1538462), wk =   0.0109240
        k(   20) = (   0.0000000   0.3076923   0.0000000), wk =   0.0054620
        k(   21) = (  -0.0769231   0.3846154  -0.0769231), wk =   0.0218480
        k(   22) = (  -0.1538462   0.4615385  -0.1538462), wk =   0.0218480
        k(   23) = (  -0.2307692   0.5384615  -0.2307692), wk =   0.0218480
        k(   24) = (  -0.3076923   0.6153846  -0.3076923), wk =   0.0218480
        k(   25) = (   0.6153846  -0.3076923   0.6153846), wk =   0.0218480
        k(   26) = (   0.5384615  -0.2307692   0.5384615), wk =   0.0218480
        k(   27) = (   0.4615385  -0.1538462   0.4615385), wk =   0.0218480
        k(   28) = (   0.3846154  -0.0769231   0.3846154), wk =   0.0218480
        k(   29) = (   0.3076923   0.0000000   0.3076923), wk =   0.0109240
        k(   30) = (   0.0000000   0.4615385   0.0000000), wk =   0.0054620
        k(   31) = (  -0.0769231   0.5384615  -0.0769231), wk =   0.0218480
        k(   32) = (  -0.1538462   0.6153846  -0.1538462), wk =   0.0218480
        k(   33) = (  -0.2307692   0.6923077  -0.2307692), wk =   0.0218480
        k(   34) = (   0.6923077  -0.2307692   0.6923077), wk =   0.0218480
        k(   35) = (   0.6153846  -0.1538462   0.6153846), wk =   0.0218480
        k(   36) = (   0.5384615  -0.0769231   0.5384615), wk =   0.0218480
        k(   37) = (   0.4615385   0.0000000   0.4615385), wk =   0.0109240
        k(   38) = (   0.0000000   0.6153846   0.0000000), wk =   0.0054620
        k(   39) = (  -0.0769231   0.6923077  -0.0769231), wk =   0.0218480
        k(   40) = (  -0.1538462   0.7692308  -0.1538462), wk =   0.0218480
        k(   41) = (   0.7692308  -0.1538462   0.7692308), wk =   0.0218480
        k(   42) = (   0.6923077  -0.0769231   0.6923077), wk =   0.0218480
        k(   43) = (   0.6153846   0.0000000   0.6153846), wk =   0.0109240
        k(   44) = (   0.0000000   0.7692308   0.0000000), wk =   0.0054620
        k(   45) = (  -0.0769231   0.8461538  -0.0769231), wk =   0.0218480
        k(   46) = (   0.8461538  -0.0769231   0.8461538), wk =   0.0218480
        k(   47) = (   0.7692308   0.0000000   0.7692308), wk =   0.0109240
        k(   48) = (   0.0000000   0.9230769   0.0000000), wk =   0.0054620
        k(   49) = (   0.9230769   0.0000000   0.9230769), wk =   0.0109240
        k(   50) = (  -0.1538462   0.3076923   0.0000000), wk =   0.0218480
        k(   51) = (  -0.2307692   0.3846154  -0.0769231), wk =   0.0436959
        k(   52) = (  -0.3076923   0.4615385  -0.1538462), wk =   0.0436959
        k(   53) = (  -0.3846154   0.5384615  -0.2307692), wk =   0.0436959
        k(   54) = (   0.5384615  -0.3846154   0.6923077), wk =   0.0436959
        k(   55) = (  -0.1538462   0.4615385   0.0000000), wk =   0.0218480
        k(   56) = (  -0.2307692   0.5384615  -0.0769231), wk =   0.0436959
        k(   57) = (  -0.3076923   0.6153846  -0.1538462), wk =   0.0436959
        k(   58) = (   0.6153846  -0.3076923   0.7692308), wk =   0.0436959
        k(   59) = (   0.5384615  -0.2307692   0.6923077), wk =   0.0436959
        k(   60) = (   0.4615385  -0.1538462   0.6153846), wk =   0.0436959
        k(   61) = (   0.3846154  -0.0769231   0.5384615), wk =   0.0436959
        k(   62) = (   0.3076923   0.0000000   0.4615385), wk =   0.0218480
        k(   63) = (  -0.1538462   0.6153846   0.0000000), wk =   0.0218480
        k(   64) = (  -0.2307692   0.6923077  -0.0769231), wk =   0.0436959
        k(   65) = (   0.6923077  -0.2307692   0.8461538), wk =   0.0436959
        k(   66) = (   0.6153846  -0.1538462   0.7692308), wk =   0.0436959
        k(   67) = (   0.5384615  -0.0769231   0.6923077), wk =   0.0436959
        k(   68) = (   0.4615385   0.0000000   0.6153846), wk =   0.0218480
        k(   69) = (  -0.1538462   0.7692308   0.0000000), wk =   0.0218480
        k(   70) = (   0.7692308  -0.1538462   0.9230769), wk =   0.0436959
        k(   71) = (   0.6923077  -0.0769231   0.8461538), wk =   0.0436959
        k(   72) = (   0.6153846   0.0000000   0.7692308), wk =   0.0218480
        k(   73) = (   0.8461538  -0.0769231   1.0000000), wk =   0.0218480
        k(   74) = (   0.7692308   0.0000000   0.9230769), wk =   0.0218480
        k(   75) = (  -0.3076923   0.6153846   0.0000000), wk =   0.0218480
        k(   76) = (   0.6153846  -0.3076923   0.9230769), wk =   0.0436959
        k(   77) = (   0.5384615  -0.2307692   0.8461538), wk =   0.0436959
        k(   78) = (   0.6923077  -0.2307692   1.0000000), wk =   0.0218480
        k(   79) = (   0.6153846  -0.1538462   0.9230769), wk =   0.0436959
        k(   80) = (   0.5384615  -0.0769231   0.8461538), wk =   0.0436959
        k(   81) = (   0.4615385   0.0000000   0.7692308), wk =   0.0218480
        k(   82) = (   0.6923077  -0.0769231   1.0000000), wk =   0.0218480
        k(   83) = (   0.6153846   0.0000000   0.9230769), wk =   0.0218480
        k(   84) = (   0.5384615  -0.0769231   1.0000000), wk =   0.0218480

     Dense  grid:     8801 G-vectors     FFT dimensions: (  30,  30,  30)

     Largest allocated arrays     est. size (Mb)     dimensions
        Kohn-Sham Wavefunctions         0.03 Mb     (    275,    6)
        NL pseudopotentials             0.03 Mb     (    275,    8)
        Each V/rho on FFT grid          0.11 Mb     (   7200)
        Each G-vector array             0.02 Mb     (   2198)
        G-vector shells                 0.00 Mb     (    139)
     Largest temporary arrays     est. size (Mb)     dimensions
        Auxiliary wavefunctions         0.10 Mb     (    275,   24)
        Each subspace H/S matrix        0.01 Mb     (  24,  24)
        Each <psi_i|beta_j> matrix      0.00 Mb     (      8,    6)
        Arrays for rho mixing           0.88 Mb     (   7200,   8)

     Check: negative/imaginary core charge=   -0.000003    0.000000

     Initial potential from superposition of free atoms

     starting charge    2.99771, renormalised to    3.00000
     Starting wfc are    4 randomized atomic wfcs
     Checking if some PAW data can be deallocated... 

     total cpu time spent up to now is        1.3 secs

     per-process dynamical memory:     9.3 Mb

     Self-consistent Calculation

     iteration #  1     ecut=    70.00 Ry     beta=0.70
     Davidson diagonalization with overlap
     ethr =  1.00E-02,  avg # of iterations =  4.9

     Threshold (ethr) on eigenvalues was too large:
     Diagonalizing with lowered threshold

     Davidson diagonalization with overlap
     ethr =  1.97E-04,  avg # of iterations =  2.1

     total cpu time spent up to now is        5.8 secs

     total energy              =     -39.50276562 Ry
     Harris-Foulkes estimate   =     -39.50415305 Ry
     estimated scf accuracy    <       0.00559585 Ry

     iteration #  2     ecut=    70.00 Ry     beta=0.70
     Davidson diagonalization with overlap
     ethr =  1.87E-04,  avg # of iterations =  1.0

     total cpu time spent up to now is        7.3 secs

     total energy              =     -39.50272559 Ry
     Harris-Foulkes estimate   =     -39.50283106 Ry
     estimated scf accuracy    <       0.00040660 Ry

     iteration #  3     ecut=    70.00 Ry     beta=0.70
     Davidson diagonalization with overlap
     ethr =  1.36E-05,  avg # of iterations =  1.8

     total cpu time spent up to now is        9.0 secs

     total energy              =     -39.50274641 Ry
     Harris-Foulkes estimate   =     -39.50274697 Ry
     estimated scf accuracy    <       0.00000138 Ry

     iteration #  4     ecut=    70.00 Ry     beta=0.70
     Davidson diagonalization with overlap
     ethr =  4.62E-08,  avg # of iterations =  3.2

     total cpu time spent up to now is       10.9 secs

     total energy              =     -39.50274776 Ry
     Harris-Foulkes estimate   =     -39.50274774 Ry
     estimated scf accuracy    <       0.00000012 Ry

     iteration #  5     ecut=    70.00 Ry     beta=0.70
     Davidson diagonalization with overlap
     ethr =  3.90E-09,  avg # of iterations =  2.1

     total cpu time spent up to now is       12.7 secs

     total energy              =     -39.50274767 Ry
     Harris-Foulkes estimate   =     -39.50274780 Ry
     estimated scf accuracy    <       0.00000035 Ry

     iteration #  6     ecut=    70.00 Ry     beta=0.70
     Davidson diagonalization with overlap
     ethr =  3.90E-09,  avg # of iterations =  1.0

     total cpu time spent up to now is       14.3 secs

     End of self-consistent calculation

          k = 0.0000 0.0000 0.0000 (  1067 PWs)   bands (ev):

    -3.2239  20.5711  20.5711  22.0492  22.0492  22.0492

          k =-0.0769 0.0769-0.0769 (  1091 PWs)   bands (ev):

    -3.0627  18.2079  20.0592  20.0592  22.7113  22.8079

          k =-0.1538 0.1538-0.1538 (  1098 PWs)   bands (ev):

    -2.5804  15.0971  19.3905  19.3905  22.5767  23.9500

          k =-0.2308 0.2308-0.2308 (  1089 PWs)   bands (ev):

    -1.7802  12.0977  18.9307  18.9307  22.3448  23.0521

          k =-0.3077 0.3077-0.3077 (  1089 PWs)   bands (ev):

    -0.6672   9.3071  18.7255  18.7255  21.7133  21.7133

          k =-0.3846 0.3846-0.3846 (  1101 PWs)   bands (ev):

     0.7514   6.7613  18.7857  18.7857  20.5859  20.5859

          k =-0.4615 0.4615-0.4615 (  1098 PWs)   bands (ev):

     2.4645   4.4826  19.1146  19.1146  19.7176  19.7176

          k = 0.0000 0.1538 0.0000 (  1087 PWs)   bands (ev):

    -3.0091  19.0083  19.0083  19.3006  21.5569  23.9237

          k =-0.0769 0.2308-0.0769 (  1101 PWs)   bands (ev):

    -2.6339  16.2014  18.1756  19.3960  21.8779  23.2029

          k =-0.1538 0.3077-0.1538 (  1100 PWs)   bands (ev):

    -1.9399  13.1856  17.6015  19.0696  21.2874  23.4701

          k =-0.2308 0.3846-0.2308 (  1095 PWs)   bands (ev):

    -0.9314  10.3345  17.2950  18.8266  19.8021  23.8185

          k =-0.3077 0.4615-0.3077 (  1099 PWs)   bands (ev):

     0.3848   7.7114  17.2593  18.5238  18.8462  22.6429

          k =-0.3846 0.5385-0.3846 (  1103 PWs)   bands (ev):

     1.9999   5.3452  17.4961  17.5510  19.0976  21.6995

          k = 0.5385-0.3846 0.5385 (  1104 PWs)   bands (ev):

     3.2250   3.9316  16.8426  18.0059  19.6389  21.0151

          k = 0.4615-0.3077 0.4615 (  1109 PWs)   bands (ev):

     1.4292   6.1031  16.4144  18.7873  20.4553  20.5984

          k = 0.3846-0.2308 0.3846 (  1097 PWs)   bands (ev):

    -0.0876   8.5560  16.2689  19.8213  20.4638  21.5335

          k = 0.3077-0.1538 0.3077 (  1098 PWs)   bands (ev):

    -1.3021  11.2541  16.4083  20.4995  21.1925  22.8308

          k = 0.2308-0.0769 0.2308 (  1094 PWs)   bands (ev):

    -2.2064  14.1476  16.8444  20.8342  22.5429  23.3674

          k = 0.1538 0.0000 0.1538 (  1097 PWs)   bands (ev):

    -2.7946  16.9102  17.8039  20.9885  22.2974  23.2530

          k = 0.0000 0.3077 0.0000 (  1094 PWs)   bands (ev):

    -2.3666  17.2260  17.2260  17.4061  20.4502  21.0839

          k =-0.0769 0.3846-0.0769 (  1092 PWs)   bands (ev):

    -1.7802  14.4748  16.5484  17.8204  19.1822  20.7504

          k =-0.1538 0.4615-0.1538 (  1089 PWs)   bands (ev):

    -0.8786  11.6195  16.1440  17.4498  17.8211  22.3124

          k =-0.2308 0.5385-0.2308 (  1098 PWs)   bands (ev):

     0.3320   8.9425  16.0133  16.1233  17.7266  24.3179

          k =-0.3077 0.6154-0.3077 (  1095 PWs)   bands (ev):

     1.8434   6.5025  15.0245  16.1567  17.9192  23.9452

          k = 0.6154-0.3077 0.6154 (  1098 PWs)   bands (ev):

     3.6292   4.3423  14.2078  16.5746  18.3926  23.1855

          k = 0.5385-0.2308 0.5385 (  1100 PWs)   bands (ev):

     2.4131   5.7410  13.6831  17.2670  19.1500  22.6832

          k = 0.4615-0.1538 0.4615 (  1103 PWs)   bands (ev):

     0.8034   8.0820  13.4616  18.2318  20.1814  22.4398

          k = 0.3846-0.0769 0.3846 (  1095 PWs)   bands (ev):

    -0.5089  10.6303  13.5806  19.4606  21.4632  22.4249

          k = 0.3077 0.0000 0.3077 (  1095 PWs)   bands (ev):

    -1.5144  13.0049  14.3866  20.9192  22.2363  22.9367

          k = 0.0000 0.4615 0.0000 (  1094 PWs)   bands (ev):

    -1.3022  15.7708  15.7722  15.7722  17.1501  19.2459

          k =-0.0769 0.5385-0.0769 (  1090 PWs)   bands (ev):

    -0.5093  13.1058  15.2722  15.3678  16.4979  19.6092

          k =-0.1538 0.6154-0.1538 (  1089 PWs)   bands (ev):

     0.5930  10.4297  13.8757  15.0473  16.6146  21.3326

          k =-0.2308 0.6923-0.2308 (  1098 PWs)   bands (ev):

     1.9965   7.9392  12.6615  15.0973  16.7754  23.5832

          k = 0.6923-0.2308 0.6923 (  1104 PWs)   bands (ev):

     3.6858   5.6953  11.7392  15.4222  17.1783  25.6102

          k = 0.6154-0.1538 0.6154 (  1108 PWs)   bands (ev):

     3.6937   5.6713  11.1252  16.0224  17.8612  25.0341

          k = 0.5385-0.0769 0.5385 (  1106 PWs)   bands (ev):

     1.9994   7.8483  10.8675  16.8979  18.8233  24.7001

          k = 0.4615 0.0000 0.4615 (  1095 PWs)   bands (ev):

     0.5941   9.8403  11.3583  18.0467  20.0433  24.2971

          k = 0.0000 0.6154 0.0000 (  1094 PWs)   bands (ev):

     0.1738  13.4748  14.5168  14.6778  14.6778  18.2026

          k =-0.0769 0.6923-0.0769 (  1085 PWs)   bands (ev):

     1.1653  11.8023  12.1841  14.3595  15.4955  18.7267

          k =-0.1538 0.7692-0.1538 (  1094 PWs)   bands (ev):

     2.4560   9.6039  10.5766  14.3163  15.8114  20.6407

          k = 0.7692-0.1538 0.7692 (  1104 PWs)   bands (ev):

     4.0278   7.3264   9.5397  14.5481  16.1782  23.0996

          k = 0.6923-0.0769 0.6923 (  1106 PWs)   bands (ev):

     5.2458   5.8670   8.8691  15.0553  16.7889  25.7603

          k = 0.6154 0.0000 0.6154 (  1111 PWs)   bands (ev):

     3.4914   7.4664   8.9636  15.8385  17.6747  27.3257

          k = 0.0000 0.7692 0.0000 (  1094 PWs)   bands (ev):

     2.0427  10.1263  13.6731  13.9481  13.9481  17.4545

          k =-0.0769 0.8462-0.0769 (  1096 PWs)   bands (ev):

     3.2119   8.6927  11.5444  13.8121  14.8912  18.1727

          k = 0.8462-0.0769 0.8462 (  1109 PWs)   bands (ev):

     4.6275   7.5931   9.2780  13.9510  15.4030  20.2847

          k = 0.7692 0.0000 0.7692 (  1109 PWs)   bands (ev):

     5.8871   6.9370   7.4993  14.3651  15.9758  22.9335

          k = 0.0000 0.9231 0.0000 (  1102 PWs)   bands (ev):

     4.2244   7.2020  13.2496  13.5835  13.5835  17.0664

          k = 0.9231 0.0000 0.9231 (  1112 PWs)   bands (ev):

     5.0990   6.4365  11.3445  13.6298  14.6889  17.9843

          k =-0.1538 0.3077 0.0000 (  1098 PWs)   bands (ev):

    -2.1531  14.9733  16.0956  19.9672  21.1063  21.8783

          k =-0.2308 0.3846-0.0769 (  1097 PWs)   bands (ev):

    -1.3552  12.3965  15.2231  19.4872  20.1157  22.9492

          k =-0.3077 0.4615-0.1538 (  1096 PWs)   bands (ev):

    -0.2456   9.6735  14.9438  18.0439  20.0334  23.1473

          k =-0.3846 0.5385-0.2308 (  1096 PWs)   bands (ev):

     1.1685   7.1525  14.9782  16.8665  20.1351  22.0414

          k = 0.5385-0.3846 0.6923 (  1105 PWs)   bands (ev):

     2.8750   4.8874  15.2870  15.9858  20.4719  21.1764

          k =-0.1538 0.4615 0.0000 (  1093 PWs)   bands (ev):

    -1.0903  13.4031  14.6233  17.3595  18.5131  20.6362

          k =-0.2308 0.5385-0.0769 (  1091 PWs)   bands (ev):

    -0.0881  11.0162  13.8915  15.7959  18.8972  21.9330

          k =-0.3077 0.6154-0.1538 (  1096 PWs)   bands (ev):

     1.2196   8.4758  13.7536  14.5347  19.0304  23.8485

          k = 0.6154-0.3077 0.7692 (  1105 PWs)   bands (ev):

     2.8223   6.1436  13.3809  14.1181  19.3368  23.4437

          k = 0.5385-0.2308 0.6923 (  1101 PWs)   bands (ev):

     4.0351   4.7438  12.7018  14.5994  19.8939  22.7598

          k = 0.4615-0.1538 0.6154 (  1098 PWs)   bands (ev):

     2.2576   6.8776  12.2945  15.4052  20.7073  22.3152

          k = 0.3846-0.0769 0.5385 (  1097 PWs)   bands (ev):

     0.7508   9.2418  12.2313  16.4991  21.7015  22.1255

          k = 0.3077 0.0000 0.4615 (  1094 PWs)   bands (ev):

    -0.4563  11.4242  12.8861  17.8671  21.5691  22.7363

          k =-0.1538 0.6154 0.0000 (  1087 PWs)   bands (ev):

     0.3835  12.2182  13.3393  13.8636  17.3649  19.6438

          k =-0.2308 0.6923-0.0769 (  1089 PWs)   bands (ev):

     1.5815  10.0187  12.2014  13.0464  17.9569  21.1142

          k = 0.6923-0.2308 0.8462 (  1095 PWs)   bands (ev):

     3.0735   7.6701  11.1295  13.0852  18.2926  23.3863

          k = 0.6154-0.1538 0.7692 (  1105 PWs)   bands (ev):

     4.8218   5.5535  10.3235  13.4944  18.7974  25.1217

          k = 0.5385-0.0769 0.6923 (  1102 PWs)   bands (ev):

     3.6429   6.8491   9.8671  14.2096  19.5510  24.6858

          k = 0.4615 0.0000 0.6154 (  1100 PWs)   bands (ev):

     2.0506   8.6529  10.1661  15.2150  20.5566  23.9462

          k =-0.1538 0.7692 0.0000 (  1088 PWs)   bands (ev):

     2.2495  10.3106  11.4259  12.7920  16.5893  18.9356

          k = 0.7692-0.1538 0.9231 (  1096 PWs)   bands (ev):

     3.6208   9.0206   9.5149  12.4099  17.3795  20.5961

          k = 0.6923-0.0769 0.8462 (  1102 PWs)   bands (ev):

     5.2283   7.2321   8.2874  12.6856  17.9130  23.0746

          k = 0.6154 0.0000 0.7692 (  1106 PWs)   bands (ev):

     5.3077   6.6763   8.1486  13.2981  18.6121  25.7408

          k = 0.8462-0.0769 1.0000 (  1096 PWs)   bands (ev):

     4.4261   7.4031  11.0291  12.3994  16.1999  18.5694

          k = 0.7692 0.0000 0.9231 (  1109 PWs)   bands (ev):

     5.4929   6.8430   9.2557  12.2113  17.1855  20.4196

          k =-0.3077 0.6154 0.0000 (  1095 PWs)   bands (ev):

     1.0110  10.2369  11.7054  14.3144  20.5000  22.2033

          k = 0.6154-0.3077 0.9231 (  1096 PWs)   bands (ev):

     2.4102   8.2440  11.2229  13.1152  21.1795  23.0792

          k = 0.5385-0.2308 0.8462 (  1100 PWs)   bands (ev):

     4.0938   6.0739  11.4220  12.2573  21.5941  22.3936

          k = 0.6923-0.2308 1.0000 (  1096 PWs)   bands (ev):

     2.8681   9.4450  10.6040  11.3133  19.7447  21.6058

          k = 0.6154-0.1538 0.9231 (  1100 PWs)   bands (ev):

     4.4344   7.6383   9.8269  10.8064  20.6424  23.4545

          k = 0.5385-0.0769 0.8462 (  1102 PWs)   bands (ev):

     5.6279   6.2646   9.2337  11.1960  21.2986  24.2117

          k = 0.4615 0.0000 0.7692 (  1100 PWs)   bands (ev):

     3.8925   7.8618   9.3375  11.9959  22.1038  23.2550

          k = 0.6923-0.0769 1.0000 (  1097 PWs)   bands (ev):

     5.0298   7.9905   9.0490  10.6306  19.3614  21.2806

          k = 0.6154 0.0000 0.9231 (  1100 PWs)   bands (ev):

     6.2816   7.3106   7.8132  10.5339  20.4581  23.3502

          k = 0.5385-0.0769 1.0000 (  1104 PWs)   bands (ev):

     6.0286   7.4665   8.6160   9.4483  22.8876  23.7308

     the Fermi energy is     7.8527 ev

!    total energy              =     -39.50274768 Ry
     Harris-Foulkes estimate   =     -39.50274768 Ry
     estimated scf accuracy    <          1.2E-10 Ry

     total all-electron energy =      -485.645529 Ry

     The total energy is the sum of the following terms:

     one-electron contribution =       3.16862197 Ry
     hartree contribution      =       0.00578153 Ry
     xc contribution           =      -3.03160190 Ry
     ewald contribution        =      -5.40809419 Ry
     one-center paw contrib.   =     -34.23741180 Ry
     smearing contrib. (-TS)   =      -0.00004330 Ry

     convergence has been achieved in   6 iterations

     Writing output data file Al.save

     init_run     :      0.87s CPU      0.93s WALL (       1 calls)
     electrons    :     12.32s CPU     12.94s WALL (       1 calls)

     Called by init_run:
     wfcinit      :      0.52s CPU      0.55s WALL (       1 calls)
     potinit      :      0.07s CPU      0.07s WALL (       1 calls)

     Called by electrons:
     c_bands      :      9.91s CPU     10.35s WALL (       7 calls)
     sum_band     :      1.91s CPU      2.06s WALL (       7 calls)
     v_of_rho     :      0.10s CPU      0.10s WALL (       7 calls)
     newd         :      0.03s CPU      0.03s WALL (       7 calls)
     mix_rho      :      0.07s CPU      0.07s WALL (       7 calls)

     Called by c_bands:
     init_us_2    :      0.29s CPU      0.24s WALL (    1260 calls)
     cegterg      :      9.64s CPU     10.10s WALL (     588 calls)

     Called by *egterg:
     h_psi        :      9.03s CPU      9.44s WALL (    2028 calls)
     s_psi        :      0.05s CPU      0.06s WALL (    2028 calls)
     g_psi        :      0.05s CPU      0.05s WALL (    1356 calls)
     cdiaghg      :      0.46s CPU      0.46s WALL (    1860 calls)

     Called by h_psi:
     add_vuspsi   :      0.06s CPU      0.07s WALL (    2028 calls)

     General routines
     calbec       :      0.18s CPU      0.17s WALL (    2616 calls)
     fft          :      0.05s CPU      0.06s WALL (      93 calls)
     fftw         :     10.14s CPU     10.26s WALL (   22248 calls)
     davcio       :      0.03s CPU      0.05s WALL (    1848 calls)

     Parallel routines
     fft_scatter  :      1.41s CPU      1.79s WALL (   22341 calls)

     PAW routines
     PAW_pot      :      0.36s CPU      0.36s WALL (       7 calls)
     PAW_ddot     :      0.06s CPU      0.06s WALL (      37 calls)
     PAW_symme    :      0.00s CPU      0.00s WALL (      14 calls)

     PWSCF        :    13.93s CPU        14.65s WALL


   This run was terminated on:   2:15:43  12Jul2015            

=------------------------------------------------------------------------------=
   JOB DONE.
=------------------------------------------------------------------------------=
