
     Program PWSCF v.5.1.1 starts on 18Jun2015 at 16:36:22 

     This program is part of the open-source Quantum ESPRESSO suite
     for quantum simulation of materials; please cite
         "P. Giannozzi et al., J. Phys.:Condens. Matter 21 395502 (2009);
          URL http://www.quantum-espresso.org", 
     in publications or presentations arising from this work. More details at
     http://www.quantum-espresso.org/quote

     Serial version
     Waiting for input...
     Reading input from standard input
     Message from routine read_cards :
     DEPRECATED: no units specified in ATOMIC_POSITIONS card
     Message from routine read_cards :
     ATOMIC_POSITIONS: units set to alat

     Current dimensions of program PWSCF are:
     Max number of different atomic species (ntypx) = 10
     Max number of k-points (npk) =  40000
     Max angular momentum in pseudopotentials (lmaxx) =  3
               file Ni.pz-nd-rrkjus.UPF: wavefunction(s)  4S renormalized
 
     G-vector sticks info
     --------------------
     sticks:   dense  smooth     PW     G-vecs:    dense   smooth      PW
     Sum         421     139     55                 5601     1067     259
 
     Generating pointlists ...
     new r_m :   0.2917 (alat units)  1.8901 (a.u.) for type    1


     bravais-lattice index     =            2
     lattice parameter (alat)  =       6.4800  a.u.
     unit-cell volume          =      68.0244 (a.u.)^3
     number of atoms/cell      =            1
     number of atomic types    =            1
     number of electrons       =        10.00
     number of Kohn-Sham states=            9
     kinetic-energy cutoff     =      24.0000  Ry
     charge density cutoff     =     288.0000  Ry
     convergence threshold     =      1.0E-08
     mixing beta               =       0.7000
     number of iterations used =            8  plain     mixing
     Exchange-correlation      =  SLA  PZ   NOGX NOGC ( 1  1  0  0 0 0)

     celldm(1)=   6.480000  celldm(2)=   0.000000  celldm(3)=   0.000000
     celldm(4)=   0.000000  celldm(5)=   0.000000  celldm(6)=   0.000000

     crystal axes: (cart. coord. in units of alat)
               a(1) = (  -0.500000   0.000000   0.500000 )  
               a(2) = (   0.000000   0.500000   0.500000 )  
               a(3) = (  -0.500000   0.500000   0.000000 )  

     reciprocal axes: (cart. coord. in units 2 pi/alat)
               b(1) = ( -1.000000 -1.000000  1.000000 )  
               b(2) = (  1.000000  1.000000  1.000000 )  
               b(3) = ( -1.000000  1.000000 -1.000000 )  


     PseudoPot. # 1 for Ni read from file:
     /home/georgeyumnam/Software/q-e-master/pseudo/Ni.pz-nd-rrkjus.UPF
     MD5 check sum: bf64e4f20c74808dea28321d1ca350c3
     Pseudo is Ultrasoft + core correction, Zval = 10.0
     Generated by new atomic code, or converted to UPF format
     Using radial grid of 1203 points,  6 beta functions with: 
                l(1) =   0
                l(2) =   0
                l(3) =   1
                l(4) =   1
                l(5) =   2
                l(6) =   2
     Q(r) pseudized with 0 coefficients 


     atomic species   valence    mass     pseudopotential
        Ni            10.00    58.69000     Ni( 1.00)

     Starting magnetic structure 
     atomic species   magnetization
        Ni           0.700

     48 Sym. Ops., with inversion, found



   Cartesian axes

     site n.     atom                  positions (alat units)
         1           Ni  tau(   1) = (   0.0000000   0.0000000   0.0000000  )

     number of k points=   120  Methfessel-Paxton smearing, width (Ry)=  0.0200

     Number of k-points >= 100: set verbosity='high' to print them.

     Dense  grid:     5601 G-vectors     FFT dimensions: (  25,  25,  25)

     Smooth grid:     1067 G-vectors     FFT dimensions: (  15,  15,  15)

     Largest allocated arrays     est. size (Mb)     dimensions
        Kohn-Sham Wavefunctions         0.02 Mb     (     144,    9)
        NL pseudopotentials             0.04 Mb     (     144,   18)
        Each V/rho on FFT grid          0.48 Mb     (   15625,   2)
        Each G-vector array             0.04 Mb     (    5601)
        G-vector shells                 0.00 Mb     (     104)
     Largest temporary arrays     est. size (Mb)     dimensions
        Each subspace H/S matrix        0.00 Mb     (       9,    9)
        Each <psi_i|beta_j> matrix      0.00 Mb     (      18,    9)
        Arrays for rho mixing           1.91 Mb     (   15625,    8)

     Check: negative/imaginary core charge=   -0.000015    0.000000

     Initial potential from superposition of free atoms

     starting charge    9.99966, renormalised to   10.00000
     Starting wfc are    6 randomized atomic wfcs +    3 random wfc

     total cpu time spent up to now is        0.8 secs

     per-process dynamical memory:     8.6 Mb

     Self-consistent Calculation

     iteration #  1     ecut=    24.00 Ry     beta=0.70
     CG style diagonalization
     ethr =  1.00E-02,  avg # of iterations =  4.4
 
     Magnetic moment per site:
     atom:    1    charge:    8.4500    magn:    3.1479    constr:    0.0000

     total cpu time spent up to now is        1.4 secs

     total energy              =     -85.36096599 Ry
     Harris-Foulkes estimate   =     -85.36514502 Ry
     estimated scf accuracy    <       0.90141751 Ry

     total magnetization       =     1.84 Bohr mag/cell
     absolute magnetization    =     1.85 Bohr mag/cell

     iteration #  2     ecut=    24.00 Ry     beta=0.70
     CG style diagonalization
     ethr =  9.01E-03,  avg # of iterations =  3.2
 
     Magnetic moment per site:
     atom:    1    charge:    8.6850    magn:    2.2878    constr:    0.0000

     total cpu time spent up to now is        1.8 secs

     total energy              =     -85.54122001 Ry
     Harris-Foulkes estimate   =     -85.82958006 Ry
     estimated scf accuracy    <       0.86841827 Ry

     total magnetization       =     0.68 Bohr mag/cell
     absolute magnetization    =     0.80 Bohr mag/cell

     iteration #  3     ecut=    24.00 Ry     beta=0.70
     CG style diagonalization
     ethr =  8.68E-03,  avg # of iterations =  3.0
 
     Magnetic moment per site:
     atom:    1    charge:    8.6743    magn:    0.8051    constr:    0.0000

     total cpu time spent up to now is        2.2 secs

     total energy              =     -85.71078604 Ry
     Harris-Foulkes estimate   =     -85.68406274 Ry
     estimated scf accuracy    <       0.04302436 Ry

     total magnetization       =     1.00 Bohr mag/cell
     absolute magnetization    =     1.10 Bohr mag/cell

     iteration #  4     ecut=    24.00 Ry     beta=0.70
     CG style diagonalization
     ethr =  4.30E-04,  avg # of iterations =  3.0
 
     Magnetic moment per site:
     atom:    1    charge:    8.6835    magn:    0.6578    constr:    0.0000

     total cpu time spent up to now is        2.7 secs

     total energy              =     -85.72197191 Ry
     Harris-Foulkes estimate   =     -85.72140004 Ry
     estimated scf accuracy    <       0.00131660 Ry

     total magnetization       =     0.62 Bohr mag/cell
     absolute magnetization    =     0.74 Bohr mag/cell

     iteration #  5     ecut=    24.00 Ry     beta=0.70
     CG style diagonalization
     ethr =  1.32E-05,  avg # of iterations =  3.4
 
     Magnetic moment per site:
     atom:    1    charge:    8.6879    magn:    0.5873    constr:    0.0000

     total cpu time spent up to now is        3.1 secs

     total energy              =     -85.72236901 Ry
     Harris-Foulkes estimate   =     -85.72222338 Ry
     estimated scf accuracy    <       0.00023033 Ry

     total magnetization       =     0.58 Bohr mag/cell
     absolute magnetization    =     0.68 Bohr mag/cell

     iteration #  6     ecut=    24.00 Ry     beta=0.70
     CG style diagonalization
     ethr =  2.30E-06,  avg # of iterations =  3.4
 
     Magnetic moment per site:
     atom:    1    charge:    8.6890    magn:    0.6199    constr:    0.0000

     total cpu time spent up to now is        3.6 secs

     total energy              =     -85.72248656 Ry
     Harris-Foulkes estimate   =     -85.72248257 Ry
     estimated scf accuracy    <       0.00003069 Ry

     total magnetization       =     0.58 Bohr mag/cell
     absolute magnetization    =     0.65 Bohr mag/cell

     iteration #  7     ecut=    24.00 Ry     beta=0.70
     CG style diagonalization
     ethr =  3.07E-07,  avg # of iterations =  3.0
 
     Magnetic moment per site:
     atom:    1    charge:    8.6894    magn:    0.6059    constr:    0.0000

     total cpu time spent up to now is        4.0 secs

     total energy              =     -85.72249034 Ry
     Harris-Foulkes estimate   =     -85.72248982 Ry
     estimated scf accuracy    <       0.00000225 Ry

     total magnetization       =     0.58 Bohr mag/cell
     absolute magnetization    =     0.65 Bohr mag/cell

     iteration #  8     ecut=    24.00 Ry     beta=0.70
     CG style diagonalization
     ethr =  2.25E-08,  avg # of iterations =  3.2
 
     Magnetic moment per site:
     atom:    1    charge:    8.6892    magn:    0.6114    constr:    0.0000

     total cpu time spent up to now is        4.5 secs

     total energy              =     -85.72249130 Ry
     Harris-Foulkes estimate   =     -85.72249087 Ry
     estimated scf accuracy    <       0.00000101 Ry

     total magnetization       =     0.58 Bohr mag/cell
     absolute magnetization    =     0.65 Bohr mag/cell

     iteration #  9     ecut=    24.00 Ry     beta=0.70
     CG style diagonalization
     ethr =  1.01E-08,  avg # of iterations =  3.0
 
     Magnetic moment per site:
     atom:    1    charge:    8.6892    magn:    0.6111    constr:    0.0000

     total cpu time spent up to now is        4.9 secs

     End of self-consistent calculation

     Number of k-points >= 100: set verbosity='high' to print the bands.

     the Fermi energy is    15.2873 ev

!    total energy              =     -85.72249139 Ry
     Harris-Foulkes estimate   =     -85.72249139 Ry
     estimated scf accuracy    <          4.9E-09 Ry

     The total energy is the sum of the following terms:

     one-electron contribution =       0.28977701 Ry
     hartree contribution      =      14.35011473 Ry
     xc contribution           =     -29.60821734 Ry
     ewald contribution        =     -70.75404435 Ry
     smearing contrib. (-TS)   =      -0.00012144 Ry

     total magnetization       =     0.58 Bohr mag/cell
     absolute magnetization    =     0.65 Bohr mag/cell

     convergence has been achieved in   9 iterations

     Forces acting on atoms (Ry/au):

     atom    1 type  1   force =     0.00000000    0.00000000    0.00000000

     Total force =     0.000000     Total SCF correction =     0.000000


     entering subroutine stress ...

          total   stress  (Ry/bohr**3)                   (kbar)     P=  -22.57
  -0.00015342   0.00000000   0.00000000        -22.57      0.00      0.00
   0.00000000  -0.00015342  -0.00000000          0.00    -22.57     -0.00
   0.00000000  -0.00000000  -0.00015342          0.00     -0.00    -22.57


     Writing output data file ni.save
 
     init_run     :      0.71s CPU      0.72s WALL (       1 calls)
     electrons    :      3.83s CPU      4.10s WALL (       1 calls)
     forces       :      0.08s CPU      0.08s WALL (       1 calls)
     stress       :      0.33s CPU      0.33s WALL (       1 calls)

     Called by init_run:
     wfcinit      :      0.10s CPU      0.10s WALL (       1 calls)
     potinit      :      0.01s CPU      0.01s WALL (       1 calls)

     Called by electrons:
     c_bands      :      2.88s CPU      3.12s WALL (       9 calls)
     sum_band     :      0.72s CPU      0.75s WALL (       9 calls)
     v_of_rho     :      0.04s CPU      0.04s WALL (      10 calls)
     newd         :      0.18s CPU      0.18s WALL (      10 calls)
     mix_rho      :      0.01s CPU      0.01s WALL (       9 calls)

     Called by c_bands:
     init_us_2    :      0.15s CPU      0.14s WALL (    2520 calls)
     ccgdiagg     :      2.17s CPU      2.35s WALL (    1080 calls)
     wfcrot       :      0.71s CPU      0.77s WALL (    1080 calls)

     Called by *cgdiagg:
     h_psi        :      2.21s CPU      2.37s WALL (   24475 calls)
     s_psi        :      0.22s CPU      0.26s WALL (   47870 calls)
     cdiaghg      :      0.05s CPU      0.04s WALL (    1080 calls)

     Called by h_psi:
     add_vuspsi   :      0.13s CPU      0.16s WALL (   24475 calls)

     General routines
     calbec       :      0.20s CPU      0.24s WALL (   49190 calls)
     fft          :      0.04s CPU      0.04s WALL (     170 calls)
     ffts         :      0.00s CPU      0.00s WALL (      38 calls)
     fftw         :      1.43s CPU      1.46s WALL (   75950 calls)
     interpolate  :      0.01s CPU      0.01s WALL (      38 calls)
     davcio       :      0.00s CPU      0.00s WALL (     120 calls)
 
 
     PWSCF        :     5.20s CPU         5.52s WALL

 
   This run was terminated on:  16:36:28  18Jun2015            

=------------------------------------------------------------------------------=
   JOB DONE.
=------------------------------------------------------------------------------=
