
     Program PWSCF v.5.0.2 (svn rev. 9656) starts on 26Jul2015 at  2:43: 4 

     This program is part of the open-source Quantum ESPRESSO suite
     for quantum simulation of materials; please cite
         "P. Giannozzi et al., J. Phys.:Condens. Matter 21 395502 (2009);
          URL http://www.quantum-espresso.org", 
     in publications or presentations arising from this work. More details at
     http://www.quantum-espresso.org/quote.php

     Parallel version (MPI), running on     4 processors
     R & G space division:  proc/nbgrp/npool/nimage =       4

     Current dimensions of program PWSCF are:
     Max number of different atomic species (ntypx) = 10
     Max number of k-points (npk) =  40000
     Max angular momentum in pseudopotentials (lmaxx) =  3
     Waiting for input...
     Reading input from standard input
               file C.pbe-rrkjus.UPF: wavefunction(s)  2S 2P renormalized

     Subspace diagonalization in iterative solution of the eigenvalue problem:
     a serial algorithm will be used


     Parallelization info
     --------------------
     sticks:   dense  smooth     PW     G-vecs:    dense   smooth      PW
     Min         211     109     34                58589    22883    3850
     Max         212     110     35                58614    22918    3865
     Sum         847     439    139               234415    91585   15417



     bravais-lattice index     =            0
     lattice parameter (alat)  =       4.6500  a.u.
     unit-cell volume          =    1044.8904 (a.u.)^3
     number of atoms/cell      =            2
     number of atomic types    =            1
     number of electrons       =         8.00
     number of Kohn-Sham states=            8
     kinetic-energy cutoff     =      75.0000  Ry
     charge density cutoff     =     560.0000  Ry
     convergence threshold     =      1.0E-08
     mixing beta               =       0.7000
     number of iterations used =            8  plain     mixing
     Exchange-correlation      =  SLA  PW   PBE  PBE ( 1 4 3 4 0)
     EXX-fraction              =        0.00

     celldm(1)=   4.650000  celldm(2)=   0.000000  celldm(3)=   0.000000
     celldm(4)=   0.000000  celldm(5)=   0.000000  celldm(6)=   0.000000

     crystal axes: (cart. coord. in units of alat)
               a(1) = (   1.000000   0.000000   0.000000 )  
               a(2) = (   0.500000   0.866025   0.000000 )  
               a(3) = (   0.000000   0.000000  12.000000 )  

     reciprocal axes: (cart. coord. in units 2 pi/alat)
               b(1) = (  1.000000 -0.577350  0.000000 )  
               b(2) = (  0.000000  1.154701  0.000000 )  
               b(3) = (  0.000000  0.000000  0.083333 )  


     PseudoPot. # 1 for C  read from file:
     ./C.pbe-rrkjus.UPF
     MD5 check sum: 00fb224312de0c5b6853bd333518df6f
     Pseudo is Ultrasoft, Zval =  4.0
     Generated by new atomic code, or converted to UPF format
     Using radial grid of  627 points,  4 beta functions with: 
                l(1) =   0
                l(2) =   0
                l(3) =   1
                l(4) =   1
     Q(r) pseudized with 0 coefficients 


     atomic species   valence    mass     pseudopotential
        C              4.00    12.00000     C ( 1.00)

     24 Sym. Ops., with inversion, found (12 have fractional translation)



   Cartesian axes

     site n.     atom                  positions (alat units)
         1           C   tau(   1) = (   0.0000000   0.0000000   0.0000000  )
         2           C   tau(   2) = (   1.0000000   0.5773503   0.0000000  )

     number of k points=    12  gaussian smearing, width (Ry)=  0.0010
                       cart. coord. in units 2pi/alat
        k(    1) = (   0.0000000   0.0000000   0.0000000), wk =   0.0246914
        k(    2) = (   0.0000000   0.1283001   0.0000000), wk =   0.1481481
        k(    3) = (   0.0000000   0.2566001   0.0000000), wk =   0.1481481
        k(    4) = (   0.0000000   0.3849002   0.0000000), wk =   0.1481481
        k(    5) = (   0.0000000   0.5132002   0.0000000), wk =   0.1481481
        k(    6) = (   0.1111111   0.1924501   0.0000000), wk =   0.1481481
        k(    7) = (   0.1111111   0.3207502   0.0000000), wk =   0.2962963
        k(    8) = (   0.1111111   0.4490502   0.0000000), wk =   0.2962963
        k(    9) = (   0.1111111  -0.5773503   0.0000000), wk =   0.1481481
        k(   10) = (   0.2222222   0.3849002   0.0000000), wk =   0.1481481
        k(   11) = (   0.2222222  -0.6415003   0.0000000), wk =   0.2962963
        k(   12) = (   0.3333333  -0.5773503   0.0000000), wk =   0.0493827

     Dense  grid:   234415 G-vectors     FFT dimensions: (  36,  36, 432)

     Smooth grid:    91585 G-vectors     FFT dimensions: (  25,  25, 320)

     Largest allocated arrays     est. size (Mb)     dimensions
        Kohn-Sham Wavefunctions         0.35 Mb     (   2902,    8)
        NL pseudopotentials             0.71 Mb     (   2902,   16)
        Each V/rho on FFT grid          2.14 Mb     ( 139968)
        Each G-vector array             0.45 Mb     (  58604)
        G-vector shells                 0.13 Mb     (  17121)
     Largest temporary arrays     est. size (Mb)     dimensions
        Auxiliary wavefunctions         1.42 Mb     (   2902,   32)
        Each subspace H/S matrix        0.02 Mb     (  32,  32)
        Each <psi_i|beta_j> matrix      0.00 Mb     (     16,    8)
        Arrays for rho mixing          17.09 Mb     ( 139968,   8)

     Initial potential from superposition of free atoms

     starting charge    7.99989, renormalised to    8.00000

     negative rho (up, down):  0.254E-04 0.000E+00
     Starting wfc are    8 randomized atomic wfcs

     total cpu time spent up to now is        3.9 secs

     per-process dynamical memory:    30.6 Mb

     Self-consistent Calculation

     iteration #  1     ecut=    75.00 Ry     beta=0.70
     Davidson diagonalization with overlap
     ethr =  1.00E-02,  avg # of iterations =  5.0

     negative rho (up, down):  0.174E-04 0.000E+00

     total cpu time spent up to now is       11.9 secs

     total energy              =     -22.75839126 Ry
     Harris-Foulkes estimate   =     -22.88291446 Ry
     estimated scf accuracy    <       0.20664376 Ry

     iteration #  2     ecut=    75.00 Ry     beta=0.70
     Davidson diagonalization with overlap
     ethr =  2.58E-03,  avg # of iterations =  4.7

     negative rho (up, down):  0.169E-04 0.000E+00

     total cpu time spent up to now is       18.3 secs

     total energy              =     -22.78955145 Ry
     Harris-Foulkes estimate   =     -22.78968906 Ry
     estimated scf accuracy    <       0.00251139 Ry

     iteration #  3     ecut=    75.00 Ry     beta=0.70
     Davidson diagonalization with overlap
     ethr =  3.14E-05,  avg # of iterations = 10.0

     negative rho (up, down):  0.186E-04 0.000E+00

     total cpu time spent up to now is       28.4 secs

     total energy              =     -22.78990725 Ry
     Harris-Foulkes estimate   =     -22.78987691 Ry
     estimated scf accuracy    <       0.00013833 Ry

     iteration #  4     ecut=    75.00 Ry     beta=0.70
     Davidson diagonalization with overlap
     ethr =  1.73E-06,  avg # of iterations =  5.4

     negative rho (up, down):  0.187E-04 0.000E+00

     total cpu time spent up to now is       36.4 secs

     total energy              =     -22.78991260 Ry
     Harris-Foulkes estimate   =     -22.78991178 Ry
     estimated scf accuracy    <       0.00000093 Ry

     iteration #  5     ecut=    75.00 Ry     beta=0.70
     Davidson diagonalization with overlap
     ethr =  1.16E-08,  avg # of iterations =  2.4

     negative rho (up, down):  0.187E-04 0.000E+00

     total cpu time spent up to now is       43.1 secs

     total energy              =     -22.78991291 Ry
     Harris-Foulkes estimate   =     -22.78991290 Ry
     estimated scf accuracy    <       0.00000002 Ry

     iteration #  6     ecut=    75.00 Ry     beta=0.70
     Davidson diagonalization with overlap
     ethr =  3.12E-10,  avg # of iterations =  2.0

     negative rho (up, down):  0.186E-04 0.000E+00

     total cpu time spent up to now is       48.4 secs

     End of self-consistent calculation

          k = 0.0000 0.0000 0.0000 ( 11445 PWs)   bands (ev):

   -22.4911 -10.6016  -6.0243  -6.0243   0.3035   1.0416   1.2090   1.5613

          k = 0.0000 0.1283 0.0000 ( 11537 PWs)   bands (ev):

   -22.1993 -10.2525  -7.1342  -6.5975   0.7010   1.4457   1.6176   1.9678

          k = 0.0000 0.2566 0.0000 ( 11545 PWs)   bands (ev):

   -21.3296  -9.6756  -9.2230  -7.7536   1.8924   2.6524   2.8434   3.1846

          k = 0.0000 0.3849 0.0000 ( 11475 PWs)   bands (ev):

   -19.9029 -12.6019  -8.7746  -7.5939   1.9771   3.8613   4.6829   4.8232

          k = 0.0000 0.5132 0.0000 ( 11425 PWs)   bands (ev):

   -17.9945 -15.3470  -9.3386  -5.7455  -0.7264   4.5365   6.6300   7.4632

          k = 0.1111 0.1925 0.0000 ( 11549 PWs)   bands (ev):

   -21.6185  -9.5624  -8.6840  -7.7424   1.4963   2.2522   2.4348   2.7801

          k = 0.1111 0.3208 0.0000 ( 11482 PWs)   bands (ev):

   -20.4702 -11.1285  -9.1253  -8.2234   3.0826   3.2313   3.8723   4.0693

          k = 0.1111 0.4491 0.0000 ( 11445 PWs)   bands (ev):

   -18.7921 -13.8867 -10.0050  -6.3914   0.3825   5.4224   5.9056   6.2463

          k = 0.1111-0.5774 0.0000 ( 11432 PWs)   bands (ev):

   -17.0421 -16.0363 -10.3046  -5.0516  -1.3456   5.7306   8.4413   8.6130

          k = 0.2222 0.3849 0.0000 ( 11404 PWs)   bands (ev):

   -19.0679 -12.6385 -11.1393  -6.6377   1.0116   5.0526   5.8110   6.1121

          k = 0.2222-0.6415 0.0000 ( 11385 PWs)   bands (ev):

   -17.2151 -14.7542 -12.1360  -4.7570  -1.2324   7.7314   7.9483   8.5920

          k = 0.3333-0.5774 0.0000 ( 11424 PWs)   bands (ev):

   -15.5521 -15.5521 -13.5623  -2.9488  -2.9488   7.6897   9.9571   9.9571

     the Fermi energy is    -2.9488 ev

!    total energy              =     -22.78991291 Ry
     Harris-Foulkes estimate   =     -22.78991291 Ry
     estimated scf accuracy    <          7.2E-10 Ry

     The total energy is the sum of the following terms:

     one-electron contribution =    -353.75982537 Ry
     hartree contribution      =     177.89034260 Ry
     xc contribution           =      -7.02464372 Ry
     ewald contribution        =     160.10424143 Ry
     smearing contrib. (-TS)   =      -0.00002786 Ry

     convergence has been achieved in   6 iterations

     Writing output data file graphene.save

     init_run     :      3.58s CPU      3.82s WALL (       1 calls)
     electrons    :     37.01s CPU     44.55s WALL (       1 calls)

     Called by init_run:
     wfcinit      :      1.24s CPU      1.31s WALL (       1 calls)
     potinit      :      1.06s CPU      1.10s WALL (       1 calls)

     Called by electrons:
     c_bands      :     23.69s CPU     27.75s WALL (       6 calls)
     sum_band     :      7.64s CPU      9.65s WALL (       6 calls)
     v_of_rho     :      2.47s CPU      3.21s WALL (       7 calls)
     newd         :      2.70s CPU      3.06s WALL (       7 calls)
     mix_rho      :      0.36s CPU      0.55s WALL (       6 calls)

     Called by c_bands:
     init_us_2    :      0.39s CPU      0.46s WALL (     156 calls)
     cegterg      :     23.14s CPU     27.11s WALL (      72 calls)

     Called by *egterg:
     h_psi        :     21.42s CPU     24.97s WALL (     438 calls)
     s_psi        :      0.40s CPU      0.40s WALL (     438 calls)
     g_psi        :      0.12s CPU      0.13s WALL (     354 calls)
     cdiaghg      :      0.18s CPU      0.21s WALL (     426 calls)

     Called by h_psi:
     add_vuspsi   :      0.37s CPU      0.41s WALL (     438 calls)

     General routines
     calbec       :      0.67s CPU      0.85s WALL (     510 calls)
     fft          :      2.43s CPU      3.54s WALL (     107 calls)
     ffts         :      0.08s CPU      0.08s WALL (      13 calls)
     fftw         :     15.19s CPU     19.32s WALL (    4368 calls)
     interpolate  :      0.45s CPU      0.47s WALL (      13 calls)
     davcio       :      0.13s CPU      0.16s WALL (     228 calls)

     Parallel routines
     fft_scatter  :     10.48s CPU     15.07s WALL (    4488 calls)

     PWSCF        :    40.86s CPU        49.05s WALL


   This run was terminated on:   2:43:53  26Jul2015            

=------------------------------------------------------------------------------=
   JOB DONE.
=------------------------------------------------------------------------------=
