
     Program PWSCF v.5.0.2 (svn rev. 9656) starts on 11Jul2015 at 20:42:27 

     This program is part of the open-source Quantum ESPRESSO suite
     for quantum simulation of materials; please cite
         "P. Giannozzi et al., J. Phys.:Condens. Matter 21 395502 (2009);
          URL http://www.quantum-espresso.org", 
     in publications or presentations arising from this work. More details at
     http://www.quantum-espresso.org/quote.php

     Parallel version (MPI), running on     4 processors
     R & G space division:  proc/nbgrp/npool/nimage =       4

     Current dimensions of program PWSCF are:
     Max number of different atomic species (ntypx) = 10
     Max number of k-points (npk) =  40000
     Max angular momentum in pseudopotentials (lmaxx) =  3
     Waiting for input...
     Reading input from standard input
               file Cu.pbe.UPF: wavefunction(s)  4S 3D renormalized

     Subspace diagonalization in iterative solution of the eigenvalue problem:
     a serial algorithm will be used


     Parallelization info
     --------------------
     sticks:   dense  smooth     PW     G-vecs:    dense   smooth      PW
     Min         289     289     87                 6437     6437    1027
     Max         292     292     88                 6438     6438    1028
     Sum        1159    1159    349                25749    25749    4111



     bravais-lattice index     =            2
     lattice parameter (alat)  =      10.2000  a.u.
     unit-cell volume          =     265.3020 (a.u.)^3
     number of atoms/cell      =            2
     number of atomic types    =            1
     number of electrons       =        22.00
     number of Kohn-Sham states=           15
     kinetic-energy cutoff     =      80.0000  Ry
     charge density cutoff     =     320.0000  Ry
     convergence threshold     =      1.0E-07
     mixing beta               =       0.7000
     number of iterations used =            8  plain     mixing
     Exchange-correlation      =  SLA  PW   PBX  PBC ( 1 4 3 4 0)
     EXX-fraction              =        0.00

     celldm(1)=  10.200000  celldm(2)=   0.000000  celldm(3)=   0.000000
     celldm(4)=   0.000000  celldm(5)=   0.000000  celldm(6)=   0.000000

     crystal axes: (cart. coord. in units of alat)
               a(1) = (  -0.500000   0.000000   0.500000 )  
               a(2) = (   0.000000   0.500000   0.500000 )  
               a(3) = (  -0.500000   0.500000   0.000000 )  

     reciprocal axes: (cart. coord. in units 2 pi/alat)
               b(1) = ( -1.000000 -1.000000  1.000000 )  
               b(2) = (  1.000000  1.000000  1.000000 )  
               b(3) = ( -1.000000  1.000000 -1.000000 )  


     PseudoPot. # 1 for Cu read from file:
     ./Cu.pbe.UPF
     MD5 check sum: 0c51aa2b3b25e0d1c3270f17c0a46a12
     Pseudo is Projector augmented-wave + core cor, Zval = 11.0
     Generated using "atomic" code by A. Dal Corso  v.5.0.99 svn rev. 10869
     Shape of augmentation charge: BESSEL
     Using radial grid of 1199 points,  6 beta functions with: 
                l(1) =   0
                l(2) =   0
                l(3) =   1
                l(4) =   1
                l(5) =   2
                l(6) =   2
     Q(r) pseudized with 0 coefficients 


     atomic species   valence    mass     pseudopotential
        Cu            11.00    63.54600     Cu( 1.00)

     24 Sym. Ops. (no inversion) found
          (note: 24 additional sym.ops. were found but ignored
           their fractional translations are incommensurate with FFT grid)


   Cartesian axes

     site n.     atom                  positions (alat units)
         1           Cu  tau(   1) = (   0.0000000   0.0000000   0.0000000  )
         2           Cu  tau(   2) = (   0.2500000   0.2500000   0.2500000  )

     number of k points=    72  gaussian smearing, width (Ry)=  0.0030
                       cart. coord. in units 2pi/alat
        k(    1) = (   0.0000000   0.0000000   0.0000000), wk =   0.0011574
        k(    2) = (  -0.0833333   0.0833333  -0.0833333), wk =   0.0092593
        k(    3) = (  -0.1666667   0.1666667  -0.1666667), wk =   0.0092593
        k(    4) = (  -0.2500000   0.2500000  -0.2500000), wk =   0.0092593
        k(    5) = (  -0.3333333   0.3333333  -0.3333333), wk =   0.0092593
        k(    6) = (  -0.4166667   0.4166667  -0.4166667), wk =   0.0092593
        k(    7) = (   0.5000000  -0.5000000   0.5000000), wk =   0.0046296
        k(    8) = (   0.0000000   0.1666667   0.0000000), wk =   0.0069444
        k(    9) = (  -0.0833333   0.2500000  -0.0833333), wk =   0.0277778
        k(   10) = (  -0.1666667   0.3333333  -0.1666667), wk =   0.0277778
        k(   11) = (  -0.2500000   0.4166667  -0.2500000), wk =   0.0277778
        k(   12) = (  -0.3333333   0.5000000  -0.3333333), wk =   0.0277778
        k(   13) = (   0.5833333  -0.4166667   0.5833333), wk =   0.0277778
        k(   14) = (   0.5000000  -0.3333333   0.5000000), wk =   0.0277778
        k(   15) = (   0.4166667  -0.2500000   0.4166667), wk =   0.0277778
        k(   16) = (   0.3333333  -0.1666667   0.3333333), wk =   0.0277778
        k(   17) = (   0.2500000  -0.0833333   0.2500000), wk =   0.0277778
        k(   18) = (   0.1666667  -0.0000000   0.1666667), wk =   0.0138889
        k(   19) = (   0.0000000   0.3333333   0.0000000), wk =   0.0069444
        k(   20) = (  -0.0833333   0.4166667  -0.0833333), wk =   0.0277778
        k(   21) = (  -0.1666667   0.5000000  -0.1666667), wk =   0.0277778
        k(   22) = (  -0.2500000   0.5833333  -0.2500000), wk =   0.0277778
        k(   23) = (   0.6666667  -0.3333333   0.6666667), wk =   0.0277778
        k(   24) = (   0.5833333  -0.2500000   0.5833333), wk =   0.0277778
        k(   25) = (   0.5000000  -0.1666667   0.5000000), wk =   0.0277778
        k(   26) = (   0.4166667  -0.0833333   0.4166667), wk =   0.0277778
        k(   27) = (   0.3333333   0.0000000   0.3333333), wk =   0.0138889
        k(   28) = (   0.0000000   0.5000000   0.0000000), wk =   0.0069444
        k(   29) = (  -0.0833333   0.5833333  -0.0833333), wk =   0.0277778
        k(   30) = (  -0.1666667   0.6666667  -0.1666667), wk =   0.0277778
        k(   31) = (   0.7500000  -0.2500000   0.7500000), wk =   0.0277778
        k(   32) = (   0.6666667  -0.1666667   0.6666667), wk =   0.0277778
        k(   33) = (   0.5833333  -0.0833333   0.5833333), wk =   0.0277778
        k(   34) = (   0.5000000   0.0000000   0.5000000), wk =   0.0138889
        k(   35) = (   0.0000000   0.6666667   0.0000000), wk =   0.0069444
        k(   36) = (  -0.0833333   0.7500000  -0.0833333), wk =   0.0277778
        k(   37) = (   0.8333333  -0.1666667   0.8333333), wk =   0.0277778
        k(   38) = (   0.7500000  -0.0833333   0.7500000), wk =   0.0277778
        k(   39) = (   0.6666667  -0.0000000   0.6666667), wk =   0.0138889
        k(   40) = (   0.0000000   0.8333333   0.0000000), wk =   0.0069444
        k(   41) = (   0.9166667  -0.0833333   0.9166667), wk =   0.0277778
        k(   42) = (   0.8333333   0.0000000   0.8333333), wk =   0.0138889
        k(   43) = (   0.0000000  -1.0000000   0.0000000), wk =   0.0034722
        k(   44) = (  -0.1666667   0.3333333   0.0000000), wk =   0.0277778
        k(   45) = (  -0.2500000   0.4166667  -0.0833333), wk =   0.0555556
        k(   46) = (  -0.3333333   0.5000000  -0.1666667), wk =   0.0555556
        k(   47) = (   0.5833333  -0.4166667   0.7500000), wk =   0.0555556
        k(   48) = (   0.5000000  -0.3333333   0.6666667), wk =   0.0277778
        k(   49) = (  -0.1666667   0.5000000   0.0000000), wk =   0.0277778
        k(   50) = (  -0.2500000   0.5833333  -0.0833333), wk =   0.0555556
        k(   51) = (   0.6666667  -0.3333333   0.8333333), wk =   0.0555556
        k(   52) = (   0.5833333  -0.2500000   0.7500000), wk =   0.0555556
        k(   53) = (   0.5000000  -0.1666667   0.6666667), wk =   0.0555556
        k(   54) = (   0.4166667  -0.0833333   0.5833333), wk =   0.0555556
        k(   55) = (   0.3333333   0.0000000   0.5000000), wk =   0.0277778
        k(   56) = (  -0.1666667   0.6666667  -0.0000000), wk =   0.0277778
        k(   57) = (   0.7500000  -0.2500000   0.9166667), wk =   0.0555556
        k(   58) = (   0.6666667  -0.1666667   0.8333333), wk =   0.0555556
        k(   59) = (   0.5833333  -0.0833333   0.7500000), wk =   0.0555556
        k(   60) = (   0.5000000   0.0000000   0.6666667), wk =   0.0277778
        k(   61) = (   0.8333333  -0.1666667   1.0000000), wk =   0.0277778
        k(   62) = (   0.7500000  -0.0833333   0.9166667), wk =   0.0555556
        k(   63) = (   0.6666667   0.0000000   0.8333333), wk =   0.0277778
        k(   64) = (  -0.1666667  -1.0000000  -0.0000000), wk =   0.0138889
        k(   65) = (   0.6666667  -0.3333333   1.0000000), wk =   0.0277778
        k(   66) = (   0.5833333  -0.2500000   0.9166667), wk =   0.0555556
        k(   67) = (   0.5000000  -0.1666667   0.8333333), wk =   0.0277778
        k(   68) = (   0.6666667  -0.1666667   1.0000000), wk =   0.0277778
        k(   69) = (   0.5833333  -0.0833333   0.9166667), wk =   0.0555556
        k(   70) = (   0.5000000   0.0000000   0.8333333), wk =   0.0277778
        k(   71) = (  -0.3333333  -1.0000000   0.0000000), wk =   0.0138889
        k(   72) = (  -0.5000000  -1.0000000   0.0000000), wk =   0.0069444

     Dense  grid:    25749 G-vectors     FFT dimensions: (  45,  45,  45)

     Largest allocated arrays     est. size (Mb)     dimensions
        Kohn-Sham Wavefunctions         0.19 Mb     (    819,   15)
        NL pseudopotentials             0.45 Mb     (    819,   36)
        Each V/rho on FFT grid          0.37 Mb     (  24300)
        Each G-vector array             0.05 Mb     (   6438)
        G-vector shells                 0.00 Mb     (    283)
     Largest temporary arrays     est. size (Mb)     dimensions
        Auxiliary wavefunctions         0.75 Mb     (    819,   60)
        Each subspace H/S matrix        0.05 Mb     (  60,  60)
        Each <psi_i|beta_j> matrix      0.01 Mb     (     36,   15)
        Arrays for rho mixing           2.97 Mb     (  24300,   8)

     Check: negative/imaginary core charge=   -0.000065    0.000000

     Initial potential from superposition of free atoms

     starting charge   21.99954, renormalised to   22.00000
     Starting wfc are   18 randomized atomic wfcs
     Checking if some PAW data can be deallocated... 

     total cpu time spent up to now is        6.7 secs

     per-process dynamical memory:    15.1 Mb

     Self-consistent Calculation

     iteration #  1     ecut=    80.00 Ry     beta=0.70
     Davidson diagonalization with overlap
     ethr =  1.00E-02,  avg # of iterations =  3.7

     Threshold (ethr) on eigenvalues was too large:
     Diagonalizing with lowered threshold

     Davidson diagonalization with overlap
     ethr =  1.05E-04,  avg # of iterations =  3.4

     total cpu time spent up to now is       31.9 secs

     total energy              =    -426.02762197 Ry
     Harris-Foulkes estimate   =    -426.04212129 Ry
     estimated scf accuracy    <       0.02172290 Ry

     iteration #  2     ecut=    80.00 Ry     beta=0.70
     Davidson diagonalization with overlap
     ethr =  9.87E-05,  avg # of iterations =  3.1

     total cpu time spent up to now is       47.3 secs

     total energy              =    -426.01197047 Ry
     Harris-Foulkes estimate   =    -426.07160054 Ry
     estimated scf accuracy    <       0.21125756 Ry

     iteration #  3     ecut=    80.00 Ry     beta=0.70
     Davidson diagonalization with overlap
     ethr =  9.87E-05,  avg # of iterations =  3.1

     total cpu time spent up to now is       61.5 secs

     total energy              =    -426.03865300 Ry
     Harris-Foulkes estimate   =    -426.04065219 Ry
     estimated scf accuracy    <       0.00416147 Ry

     iteration #  4     ecut=    80.00 Ry     beta=0.70
     Davidson diagonalization with overlap
     ethr =  1.89E-05,  avg # of iterations =  2.4

     total cpu time spent up to now is       74.5 secs

     total energy              =    -426.03966216 Ry
     Harris-Foulkes estimate   =    -426.04039594 Ry
     estimated scf accuracy    <       0.00256151 Ry

     iteration #  5     ecut=    80.00 Ry     beta=0.70
     Davidson diagonalization with overlap
     ethr =  1.16E-05,  avg # of iterations =  1.1

     total cpu time spent up to now is       84.5 secs

     total energy              =    -426.03996542 Ry
     Harris-Foulkes estimate   =    -426.03997050 Ry
     estimated scf accuracy    <       0.00001739 Ry

     iteration #  6     ecut=    80.00 Ry     beta=0.70
     Davidson diagonalization with overlap
     ethr =  7.90E-08,  avg # of iterations =  3.1

     total cpu time spent up to now is       99.6 secs

     total energy              =    -426.03999199 Ry
     Harris-Foulkes estimate   =    -426.03999308 Ry
     estimated scf accuracy    <       0.00000544 Ry

     iteration #  7     ecut=    80.00 Ry     beta=0.70
     Davidson diagonalization with overlap
     ethr =  2.47E-08,  avg # of iterations =  1.0

     total cpu time spent up to now is      109.8 secs

     total energy              =    -426.03999215 Ry
     Harris-Foulkes estimate   =    -426.03999232 Ry
     estimated scf accuracy    <       0.00000080 Ry

     iteration #  8     ecut=    80.00 Ry     beta=0.70
     Davidson diagonalization with overlap
     ethr =  3.65E-09,  avg # of iterations =  2.0

     total cpu time spent up to now is      120.6 secs

     End of self-consistent calculation

          k = 0.0000 0.0000 0.0000 (  3143 PWs)   bands (ev):

     0.6833   3.9822   3.9822   3.9822   4.0051   4.0051   5.0375   5.0375
     5.0375   5.6614   5.6614  16.3914  16.3914  16.3914  17.3361

          k =-0.0833 0.0833-0.0833 (  3191 PWs)   bands (ev):

     0.7898   3.9217   3.9217   3.9843   4.0827   4.0827   5.0156   5.0338
     5.0338   5.6620   5.6620  14.7397  15.8803  15.8803  17.8254

          k =-0.1667 0.1667-0.1667 (  3224 PWs)   bands (ev):

     1.1035   3.8808   3.8808   3.9930   4.1646   4.1646   4.9579   5.0332
     5.0332   5.6607   5.6607  12.6115  15.1838  15.1838  17.7169

          k =-0.2500 0.2500-0.2500 (  3215 PWs)   bands (ev):

     1.6028   3.8740   3.8740   4.0124   4.2095   4.2095   4.8928   5.0598
     5.0598   5.6513   5.6513  10.6051  14.5924  14.5924  17.5832

          k =-0.3333 0.3333-0.3333 (  3203 PWs)   bands (ev):

     2.2277   3.9002   3.9002   4.0376   4.1986   4.1986   4.8890   5.1244
     5.1244   5.6287   5.6287   8.8054  14.1477  14.1477  17.5548

          k =-0.4167 0.4167-0.4167 (  3208 PWs)   bands (ev):

     2.8186   3.9504   3.9504   4.0422   4.1466   4.1466   5.0956   5.2016
     5.2016   5.5968   5.5968   7.2942  13.8708  13.8708  17.6379

          k = 0.5000-0.5000 0.5000 (  3214 PWs)   bands (ev):

     3.0765   3.9882   3.9882   4.0296   4.1059   4.1059   5.2389   5.2389
     5.4524   5.5788   5.5788   6.4529  13.7766  13.7766  17.7360

          k = 0.0000 0.1667 0.0000 (  3199 PWs)   bands (ev):

     0.8254   3.8637   3.9884   3.9884   4.0360   4.1303   4.9507   5.0628
     5.0628   5.6362   5.6848  15.1251  15.1251  15.6628  16.7437

          k =-0.0833 0.2500-0.0833 (  3214 PWs)   bands (ev):

     1.0707   3.8125   3.9605   3.9947   4.1098   4.2054   4.8674   5.0759
     5.0892   5.6119   5.7012  13.3280  14.4140  15.2810  16.9713

          k =-0.1667 0.3333-0.1667 (  3212 PWs)   bands (ev):

     1.5102   3.7917   3.9486   4.0055   4.1675   4.2679   4.7985   5.0797
     5.1296   5.5880   5.7081  11.3015  13.8532  14.6557  17.2197

          k =-0.2500 0.4167-0.2500 (  3208 PWs)   bands (ev):

     2.1000   3.8042   3.9637   4.0222   4.1755   4.2808   4.7835   5.1162
     5.1906   5.5637   5.6999   9.4358  13.4833  14.0246  16.9809

          k =-0.3333 0.5000-0.3333 (  3200 PWs)   bands (ev):

     2.7214   3.8417   3.9904   4.0325   4.1498   4.2399   4.8888   5.2402
     5.2412   5.5530   5.6722   7.8118  13.3295  13.4778  16.8174

          k = 0.5833-0.4167 0.5833 (  3206 PWs)   bands (ev):

     3.1152   3.8831   3.9775   4.0377   4.1567   4.1719   5.0760   5.2237
     5.5668   5.5826   5.6516   6.5985  13.0771  13.4044  16.8494

          k = 0.5000-0.3333 0.5000 (  3204 PWs)   bands (ev):

     3.0269   3.9169   3.9248   4.0711   4.1078   4.2147   5.1014   5.1454
     5.4616   5.5697   5.6358   6.9340  12.8666  13.7025  17.0855

          k = 0.4167-0.2500 0.4167 (  3207 PWs)   bands (ev):

     2.5210   3.8571   3.9480   4.0389   4.1389   4.2720   4.9118   5.0513
     5.2909   5.5538   5.6790   8.3269  12.8681  14.1977  17.5168

          k = 0.3333-0.1667 0.3333 (  3208 PWs)   bands (ev):

     1.8897   3.8213   3.9357   4.0106   4.1687   4.2892   4.8525   4.9857
     5.2112   5.5750   5.7006  10.0414  13.0815  14.8448  18.0713

          k = 0.2500-0.0833 0.2500 (  3221 PWs)   bands (ev):

     1.3427   3.8193   3.9254   3.9980   4.1536   4.2479   4.8913   4.9731
     5.1453   5.6048   5.7011  11.9725  13.4923  15.5714  18.1210

          k = 0.1667-0.0000 0.1667 (  3221 PWs)   bands (ev):

     0.9656   3.8543   3.9316   3.9923   4.1031   4.1678   4.9579   4.9988
     5.0903   5.6346   5.6859  13.9510  14.1577  16.1558  17.6378

          k = 0.0000 0.3333 0.0000 (  3223 PWs)   bands (ev):

     1.2466   3.7497   4.0024   4.0024   4.1263   4.2657   4.7348   5.1418
     5.1418   5.5615   5.7282  13.6697  13.6697  14.2004  15.8988

          k =-0.0833 0.4167-0.0833 (  3211 PWs)   bands (ev):

     1.6203   3.7143   4.0019   4.0079   4.1907   4.3305   4.6219   5.1852
     5.1992   5.5156   5.7464  12.0326  13.0733  13.7179  16.0283

          k =-0.1667 0.5000-0.1667 (  3198 PWs)   bands (ev):

     2.1581   3.7122   4.0052   4.0079   4.2299   4.3592   4.5801   5.2334
     5.2549   5.4878   5.7564  10.1769  12.6798  13.0150  16.0441

          k =-0.2500 0.5833-0.2500 (  3209 PWs)   bands (ev):

     2.7677   3.7354   4.0015   4.0039   4.2457   4.3223   4.6635   5.2550
     5.3591   5.5169   5.7554   8.4859  12.3109  12.5251  15.9383

          k = 0.6667-0.3333 0.6667 (  3201 PWs)   bands (ev):

     3.2355   3.7633   3.9725   4.0000   4.2564   4.2752   4.8513   5.1823
     5.5933   5.6286   5.8351   7.0591  11.7338  12.6282  15.9899

          k = 0.5833-0.2500 0.5833 (  3196 PWs)   bands (ev):

     3.2974   3.8139   3.9125   4.0340   4.1714   4.3293   5.0079   5.0760
     5.6191   5.6653   5.9383   6.7250  11.3463  12.9858  16.2254

          k = 0.5000-0.1667 0.5000 (  3202 PWs)   bands (ev):

     2.9282   3.8496   3.8882   4.0808   4.0936   4.3811   4.9716   4.9836
     5.4629   5.5511   5.7125   8.0224  11.1826  13.5688  16.6473

          k = 0.4167-0.0833 0.4167 (  3203 PWs)   bands (ev):

     2.3412   3.8055   3.9438   4.0085   4.1418   4.3896   4.8676   4.9126
     5.3785   5.4946   5.7321   9.6405  11.2558  14.3199  17.2569

          k = 0.3333 0.0000 0.3333 (  3206 PWs)   bands (ev):

     1.7712   3.7934   3.9578   3.9833   4.1596   4.3350   4.8447   4.9222
     5.2676   5.5408   5.7268  11.3404  11.6835  15.1152  18.0431

          k = 0.0000 0.5000 0.0000 (  3207 PWs)   bands (ev):

     1.9268   3.6639   4.0155   4.0155   4.2684   4.3907   4.4582   5.2760
     5.2760   5.4407   5.7759  12.3784  12.4187  12.4187  15.2523

          k =-0.0833 0.5833-0.0833 (  3208 PWs)   bands (ev):

     2.4023   3.6488   4.0091   4.0177   4.3403   4.3481   4.4454   5.3159
     5.3527   5.4150   5.8073  10.8290  11.9116  11.9635  15.3468

          k =-0.1667 0.6667-0.1667 (  3202 PWs)   bands (ev):

     2.9688   3.6632   3.9729   4.0107   4.3165   4.3889   4.5087   5.2350
     5.4708   5.5101   5.8495   9.2316  11.1093  11.7559  15.3341

          k = 0.7500-0.2500 0.7500 (  3208 PWs)   bands (ev):

     3.4412   3.6848   3.9442   3.9829   4.2962   4.4309   4.6522   5.1231
     5.6101   5.6691   6.0102   7.7720  10.3960  11.8236  15.3781

          k = 0.6667-0.1667 0.6667 (  3197 PWs)   bands (ev):

     3.5631   3.7481   3.9325   3.9666   4.2257   4.4792   4.8545   4.9990
     5.6847   5.7167   6.5302   6.7547   9.8718  12.1652  15.5814

          k = 0.5833-0.0833 0.5833 (  3199 PWs)   bands (ev):

     3.3413   3.8272   3.8738   4.0285   4.1344   4.5137   4.8937   4.9835
     5.6493   5.7279   5.7618   7.9176   9.5863  12.7478  15.9571

          k = 0.5000 0.0000 0.5000 (  3190 PWs)   bands (ev):

     2.8799   3.8261   3.8868   4.0584   4.0964   4.4826   4.8648   4.9571
     5.4629   5.5409   5.7424   9.2536   9.7211  13.5079  16.5139

          k = 0.0000 0.6667 0.0000 (  3210 PWs)   bands (ev):

     2.8100   3.6238   4.0221   4.0221   4.1756   4.4506   4.4857   5.2800
     5.4472   5.4472   5.8720  10.4027  11.4322  11.4322  14.8409

          k =-0.0833 0.7500-0.0833 (  3210 PWs)   bands (ev):

     3.3094   3.6347   3.9608   4.0190   4.1477   4.5074   4.5354   5.1766
     5.5443   5.5461   5.9782   9.3651  10.6265  11.1488  14.9296

          k = 0.8333-0.1667 0.8333 (  3217 PWs)   bands (ev):

     3.6593   3.7157   3.8843   4.0010   4.2446   4.5349   4.5987   5.0529
     5.6332   5.6827   6.2254   8.3238   9.5609  11.1532  14.9690

          k = 0.7500-0.0833 0.7500 (  3205 PWs)   bands (ev):

     3.6533   3.8583   3.9009   3.9648   4.2565   4.6477   4.6870   4.9214
     5.6934   5.7706   6.7726   7.3920   8.7484  11.4500  15.1319

          k = 0.6667-0.0000 0.6667 (  3210 PWs)   bands (ev):

     3.5906   3.8479   3.9175   3.9488   4.1913   4.6331   4.8496   4.8648
     5.7231   5.7587   6.3348   7.8308   8.4652  12.0037  15.4566

          k = 0.0000 0.8333 0.0000 (  3226 PWs)   bands (ev):

     3.6476   3.7251   3.9320   4.0235   4.0235   4.5050   4.6584   5.0879
     5.6033   5.6033   6.1801   8.5433  10.7814  10.7814  14.6483

          k = 0.9167-0.0833 0.9167 (  3226 PWs)   bands (ev):

     3.6862   3.8162   3.9818   4.0170   4.1776   4.4610   4.7522   4.9727
     5.6576   5.6758   6.5456   7.7544  10.0888  10.7074  14.7342

          k = 0.8333 0.0000 0.8333 (  3218 PWs)   bands (ev):

     3.6813   3.8068   3.9963   4.0008   4.2921   4.5165   4.7947   4.8645
     5.6873   5.7479   7.1407   7.1738   9.0362  10.9415  14.8557

          k = 0.0000-1.0000 0.0000 (  3250 PWs)   bands (ev):

     3.7482   3.7482   4.0233   4.0233   4.3258   4.3259   4.8760   4.8761
     5.6689   5.6689   7.0455   7.0455  10.5501  10.5501  14.6627

          k =-0.1667 0.3333 0.0000 (  3232 PWs)   bands (ev):

     1.3800   3.7695   3.9721   3.9988   4.1490   4.2783   4.7680   5.0676
     5.1742   5.5694   5.7226  12.5891  12.8649  15.0275  16.9425

          k =-0.2500 0.4167-0.0833 (  3202 PWs)   bands (ev):

     1.8700   3.7581   3.9794   4.0003   4.1775   4.3401   4.7082   5.0679
     5.2619   5.5261   5.7345  10.7645  12.3038  14.3626  17.1497

          k =-0.3333 0.5000-0.1667 (  3210 PWs)   bands (ev):

     2.4761   3.7781   3.9615   4.0346   4.1694   4.3474   4.7388   5.1130
     5.3413   5.5104   5.7296   8.9896  12.0431  13.6321  16.9580

          k = 0.5833-0.4167 0.7500 (  3204 PWs)   bands (ev):

     3.0341   3.8120   3.9275   4.0662   4.1619   4.3024   4.8841   5.1702
     5.4923   5.5661   5.7092   7.4603  11.9725  13.0567  16.8267

          k = 0.5000-0.3333 0.6667 (  3220 PWs)   bands (ev):

     3.2720   3.8225   3.9095   4.0602   4.1925   4.2575   5.0035   5.1404
     5.6175   5.6375   6.0055   6.4665  11.9921  12.8139  16.7883

          k =-0.1667 0.5000 0.0000 (  3203 PWs)   bands (ev):

     2.0454   3.6885   3.9959   4.0190   4.2454   4.3934   4.5137   5.2072
     5.3120   5.4587   5.7689  11.3330  11.7421  13.1863  16.1969

          k =-0.2500 0.5833-0.0833 (  3207 PWs)   bands (ev):

     2.6030   3.6949   3.9598   4.0375   4.2745   4.4083   4.5201   5.2222
     5.3990   5.4654   5.7886   9.7386  11.2432  12.4839  16.3174

          k = 0.6667-0.3333 0.8333 (  3204 PWs)   bands (ev):

     3.1578   3.7184   3.9147   4.0468   4.2879   4.3733   4.6569   5.1743
     5.5408   5.5808   5.8222   8.1622  10.9911  11.9490  16.2918

          k = 0.5833-0.2500 0.7500 (  3204 PWs)   bands (ev):

     3.4746   3.7358   3.8817   4.0457   4.2664   4.3729   4.8443   5.0709
     5.6495   5.6972   6.2459   6.8409  10.6949  11.8850  16.4178

          k = 0.5000-0.1667 0.6667 (  3204 PWs)   bands (ev):

     3.3795   3.7868   3.8591   4.0660   4.1939   4.4208   4.8678   5.0561
     5.6352   5.6997   5.9286   7.3019  10.4312  12.2491  16.7057

          k = 0.4167-0.0833 0.5833 (  3198 PWs)   bands (ev):

     2.9531   3.7809   3.8913   4.0738   4.1536   4.4545   4.7350   5.0955
     5.4713   5.5510   5.7581   8.7232  10.3549  12.8784  17.1409

          k = 0.3333 0.0000 0.5000 (  3196 PWs)   bands (ev):

     2.3841   3.7559   3.9474   4.0290   4.1738   4.4223   4.6744   5.0658
     5.4088   5.4602   5.7534  10.2309  10.6610  13.6573  17.6537

          k =-0.1667 0.6667-0.0000 (  3190 PWs)   bands (ev):

     2.8947   3.6449   3.9640   4.0342   4.2811   4.4098   4.4872   5.2465
     5.4602   5.4825   5.8623  10.0578  10.8586  11.4666  15.6958

          k = 0.7500-0.2500 0.9167 (  3202 PWs)   bands (ev):

     3.3985   3.6655   3.8940   4.0388   4.3138   4.4504   4.5430   5.1349
     5.5849   5.6102   5.9755   8.8436  10.1426  11.0209  15.8209

          k = 0.6667-0.1667 0.8333 (  3201 PWs)   bands (ev):

     3.6692   3.7095   3.8661   4.0279   4.3108   4.5185   4.6731   5.0053
     5.6737   5.7387   6.3764   7.5979   9.5063  11.0670  15.9353

          k = 0.5833-0.0833 0.7500 (  3202 PWs)   bands (ev):

     3.6169   3.7971   3.8545   4.0322   4.2409   4.5712   4.8019   4.9221
     5.7159   5.7511   6.4529   7.3943   9.0523  11.4586  16.2129

          k = 0.5000 0.0000 0.6667 (  3204 PWs)   bands (ev):

     3.3901   3.8060   3.8367   4.0677   4.1726   4.5600   4.7434   5.0290
     5.6748   5.6817   5.8430   8.4672   9.0304  12.0923  16.6488

          k = 0.8333-0.1667 1.0000 (  3209 PWs)   bands (ev):

     3.6575   3.7178   3.8698   4.0353   4.1753   4.4992   4.6304   5.0663
     5.6310   5.6342   6.1959   8.5366  10.2850  10.4612  15.4359

          k = 0.7500-0.0833 0.9167 (  3208 PWs)   bands (ev):

     3.6809   3.7840   3.9427   4.0284   4.3126   4.5116   4.7035   4.9326
     5.6924   5.7338   6.6497   7.7883   9.2392  10.4603  15.5885

          k = 0.6667 0.0000 0.8333 (  3202 PWs)   bands (ev):

     3.6618   3.8062   3.9458   4.0136   4.2916   4.6676   4.7151   4.8409
     5.7184   5.7843   7.0227   7.4377   8.4364  10.8368  15.8216

          k =-0.1667-1.0000-0.0000 (  3222 PWs)   bands (ev):

     3.7356   3.7357   4.0221   4.0221   4.3683   4.3683   4.8508   4.8509
     5.6969   5.6969   7.1049   7.1049  10.1194  10.1195  15.4042

          k = 0.6667-0.3333 1.0000 (  3201 PWs)   bands (ev):

     3.1178   3.7071   3.8888   4.0632   4.2936   4.5005   4.5104   5.1585
     5.5126   5.5702   5.8367   9.2726   9.8791  11.7220  17.5143

          k = 0.5833-0.2500 0.9167 (  3202 PWs)   bands (ev):

     3.5227   3.7261   3.8428   4.0687   4.3137   4.4883   4.6623   5.0450
     5.6647   5.7060   6.0524   8.0387   9.6310  11.0782  17.3768

          k = 0.5000-0.1667 0.8333 (  3190 PWs)   bands (ev):

     3.6748   3.7104   3.8430   4.0636   4.3308   4.4729   4.7883   4.9463
     5.7079   5.7469   6.6516   7.0351   9.6534  10.8063  17.3605

          k = 0.6667-0.1667 1.0000 (  3217 PWs)   bands (ev):

     3.6889   3.6949   3.8541   4.0576   4.4211   4.4520   4.6034   5.0014
     5.6993   5.7031   6.2887   8.3576   9.4070  10.1353  17.1870

          k = 0.5833-0.0833 0.9167 (  3205 PWs)   bands (ev):

     3.6901   3.7338   3.9329   4.0493   4.4074   4.5684   4.6873   4.8624
     5.7404   5.7748   6.8778   7.6099   8.8864   9.9346  17.3370

          k = 0.5000 0.0000 0.8333 (  3205 PWs)   bands (ev):

     3.6705   3.7428   3.8884   4.0585   4.3562   4.6338   4.6408   4.8990
     5.7398   5.7654   6.5889   7.8924   8.6880  10.3526  17.5952

          k =-0.3333-1.0000 0.0000 (  3210 PWs)   bands (ev):

     3.7141   3.7142   4.0185   4.0185   4.4646   4.4646   4.7881   4.7881
     5.7510   5.7510   7.2689   7.2690   9.3919   9.3922  17.0816

          k =-0.5000-1.0000 0.0000 (  3188 PWs)   bands (ev):

     3.7047   3.7047   4.0163   4.0164   4.5279   4.5280   4.7410   4.7411
     5.7771   5.7771   7.3920   7.3921   9.0375   9.0379  18.6766

     the Fermi energy is     6.8280 ev

!    total energy              =    -426.03999222 Ry
     Harris-Foulkes estimate   =    -426.03999225 Ry
     estimated scf accuracy    <       0.00000004 Ry

     total all-electron energy =     -6619.799529 Ry

     The total energy is the sum of the following terms:

     one-electron contribution =    -116.83987501 Ry
     hartree contribution      =      57.88198143 Ry
     xc contribution           =     -73.47406177 Ry
     ewald contribution        =    -127.80442418 Ry
     one-center paw contrib.   =    -165.80355475 Ry
     smearing contrib. (-TS)   =      -0.00005794 Ry

     convergence has been achieved in   8 iterations

     Writing output data file Cu.save

     init_run     :      5.62s CPU      5.83s WALL (       1 calls)
     electrons    :    111.35s CPU    113.95s WALL (       1 calls)

     Called by init_run:
     wfcinit      :      4.33s CPU      4.46s WALL (       1 calls)
     potinit      :      0.41s CPU      0.43s WALL (       1 calls)

     Called by electrons:
     c_bands      :     90.52s CPU     92.62s WALL (       9 calls)
     sum_band     :     16.37s CPU     16.71s WALL (       9 calls)
     v_of_rho     :      0.43s CPU      0.43s WALL (       9 calls)
     newd         :      0.73s CPU      0.75s WALL (       9 calls)
     mix_rho      :      0.51s CPU      0.51s WALL (       9 calls)

     Called by c_bands:
     init_us_2    :      1.65s CPU      1.71s WALL (    1368 calls)
     cegterg      :     86.28s CPU     88.18s WALL (     648 calls)

     Called by *egterg:
     h_psi        :     78.92s CPU     80.60s WALL (    2359 calls)
     s_psi        :      1.75s CPU      1.77s WALL (    2359 calls)
     g_psi        :      0.49s CPU      0.51s WALL (    1639 calls)
     cdiaghg      :      2.71s CPU      2.75s WALL (    2215 calls)

     Called by h_psi:
     add_vuspsi   :      1.80s CPU      1.83s WALL (    2359 calls)

     General routines
     calbec       :      2.52s CPU      2.52s WALL (    3007 calls)
     fft          :      0.20s CPU      0.20s WALL (     119 calls)
     fftw         :     79.04s CPU     80.90s WALL (   63802 calls)
     davcio       :      0.30s CPU      0.31s WALL (    2016 calls)

     Parallel routines
     fft_scatter  :     19.03s CPU     19.38s WALL (   63921 calls)

     PAW routines
     PAW_pot      :      3.17s CPU      3.31s WALL (       9 calls)
     PAW_ddot     :      0.48s CPU      0.48s WALL (      86 calls)
     PAW_symme    :      0.01s CPU      0.01s WALL (      18 calls)

     PWSCF        :  1m58.22s CPU     2m 1.05s WALL


   This run was terminated on:  20:44:29  11Jul2015            

=------------------------------------------------------------------------------=
   JOB DONE.
=------------------------------------------------------------------------------=
