
     Program PWSCF v.5.0.2 (svn rev. 9656) starts on 26Jul2015 at  2:35:15 

     This program is part of the open-source Quantum ESPRESSO suite
     for quantum simulation of materials; please cite
         "P. Giannozzi et al., J. Phys.:Condens. Matter 21 395502 (2009);
          URL http://www.quantum-espresso.org", 
     in publications or presentations arising from this work. More details at
     http://www.quantum-espresso.org/quote.php

     Parallel version (MPI), running on     4 processors
     R & G space division:  proc/nbgrp/npool/nimage =       4

     Current dimensions of program PWSCF are:
     Max number of different atomic species (ntypx) = 10
     Max number of k-points (npk) =  40000
     Max angular momentum in pseudopotentials (lmaxx) =  3
     Waiting for input...
     Reading input from standard input
               file C.pbe-rrkjus.UPF: wavefunction(s)  2S 2P renormalized

     Subspace diagonalization in iterative solution of the eigenvalue problem:
     a serial algorithm will be used


     Parallelization info
     --------------------
     sticks:   dense  smooth     PW     G-vecs:    dense   smooth      PW
     Min         211     105     31                58589    20701    3596
     Max         212     106     32                58614    20746    3627
     Sum         847     421    127               234415    82857   14429



     bravais-lattice index     =            0
     lattice parameter (alat)  =       4.6500  a.u.
     unit-cell volume          =    1044.8904 (a.u.)^3
     number of atoms/cell      =            2
     number of atomic types    =            1
     number of electrons       =         8.00
     number of Kohn-Sham states=            8
     kinetic-energy cutoff     =      70.0000  Ry
     charge density cutoff     =     560.0000  Ry
     convergence threshold     =      1.0E-08
     mixing beta               =       0.7000
     number of iterations used =            8  plain     mixing
     Exchange-correlation      =  SLA  PW   PBE  PBE ( 1 4 3 4 0)
     EXX-fraction              =        0.00

     celldm(1)=   4.650000  celldm(2)=   0.000000  celldm(3)=   0.000000
     celldm(4)=   0.000000  celldm(5)=   0.000000  celldm(6)=   0.000000

     crystal axes: (cart. coord. in units of alat)
               a(1) = (   1.000000   0.000000   0.000000 )  
               a(2) = (   0.500000   0.866025   0.000000 )  
               a(3) = (   0.000000   0.000000  12.000000 )  

     reciprocal axes: (cart. coord. in units 2 pi/alat)
               b(1) = (  1.000000 -0.577350  0.000000 )  
               b(2) = (  0.000000  1.154701  0.000000 )  
               b(3) = (  0.000000  0.000000  0.083333 )  


     PseudoPot. # 1 for C  read from file:
     ./C.pbe-rrkjus.UPF
     MD5 check sum: 00fb224312de0c5b6853bd333518df6f
     Pseudo is Ultrasoft, Zval =  4.0
     Generated by new atomic code, or converted to UPF format
     Using radial grid of  627 points,  4 beta functions with: 
                l(1) =   0
                l(2) =   0
                l(3) =   1
                l(4) =   1
     Q(r) pseudized with 0 coefficients 


     atomic species   valence    mass     pseudopotential
        C              4.00    12.00000     C ( 1.00)

     24 Sym. Ops., with inversion, found (12 have fractional translation)



   Cartesian axes

     site n.     atom                  positions (alat units)
         1           C   tau(   1) = (   0.0000000   0.0000000   0.0000000  )
         2           C   tau(   2) = (   1.0000000   0.5773503   0.0000000  )

     number of k points=    19  gaussian smearing, width (Ry)=  0.0010
                       cart. coord. in units 2pi/alat
        k(    1) = (   0.0000000   0.0000000   0.0000000), wk =   0.0138889
        k(    2) = (   0.0000000   0.0962250   0.0000000), wk =   0.0833333
        k(    3) = (   0.0000000   0.1924501   0.0000000), wk =   0.0833333
        k(    4) = (   0.0000000   0.2886751   0.0000000), wk =   0.0833333
        k(    5) = (   0.0000000   0.3849002   0.0000000), wk =   0.0833333
        k(    6) = (   0.0000000   0.4811252   0.0000000), wk =   0.0833333
        k(    7) = (   0.0000000  -0.5773503   0.0000000), wk =   0.0416667
        k(    8) = (   0.0833333   0.1443376   0.0000000), wk =   0.0833333
        k(    9) = (   0.0833333   0.2405626   0.0000000), wk =   0.1666667
        k(   10) = (   0.0833333   0.3367877   0.0000000), wk =   0.1666667
        k(   11) = (   0.0833333   0.4330127   0.0000000), wk =   0.1666667
        k(   12) = (   0.0833333  -0.6254628   0.0000000), wk =   0.1666667
        k(   13) = (   0.1666667   0.2886751   0.0000000), wk =   0.0833333
        k(   14) = (   0.1666667   0.3849002   0.0000000), wk =   0.1666667
        k(   15) = (   0.1666667  -0.6735753   0.0000000), wk =   0.1666667
        k(   16) = (   0.1666667  -0.5773503   0.0000000), wk =   0.0833333
        k(   17) = (   0.2500000  -0.7216878   0.0000000), wk =   0.0833333
        k(   18) = (   0.2500000  -0.6254628   0.0000000), wk =   0.1666667
        k(   19) = (   0.3333333  -0.5773503   0.0000000), wk =   0.0277778

     Dense  grid:   234415 G-vectors     FFT dimensions: (  36,  36, 432)

     Smooth grid:    82857 G-vectors     FFT dimensions: (  25,  25, 300)

     Largest allocated arrays     est. size (Mb)     dimensions
        Kohn-Sham Wavefunctions         0.33 Mb     (   2716,    8)
        NL pseudopotentials             0.66 Mb     (   2716,   16)
        Each V/rho on FFT grid          2.14 Mb     ( 139968)
        Each G-vector array             0.45 Mb     (  58604)
        G-vector shells                 0.13 Mb     (  17557)
     Largest temporary arrays     est. size (Mb)     dimensions
        Auxiliary wavefunctions         1.33 Mb     (   2716,   32)
        Each subspace H/S matrix        0.02 Mb     (  32,  32)
        Each <psi_i|beta_j> matrix      0.00 Mb     (     16,    8)
        Arrays for rho mixing          17.09 Mb     ( 139968,   8)

     Initial potential from superposition of free atoms

     starting charge    7.99989, renormalised to    8.00000

     negative rho (up, down):  0.254E-04 0.000E+00
     Starting wfc are    8 randomized atomic wfcs

     total cpu time spent up to now is        4.5 secs

     per-process dynamical memory:    30.6 Mb

     Self-consistent Calculation

     iteration #  1     ecut=    70.00 Ry     beta=0.70
     Davidson diagonalization with overlap
     ethr =  1.00E-02,  avg # of iterations =  4.9

     negative rho (up, down):  0.175E-04 0.000E+00

     total cpu time spent up to now is       14.7 secs

     total energy              =     -22.75907904 Ry
     Harris-Foulkes estimate   =     -22.88357596 Ry
     estimated scf accuracy    <       0.20660439 Ry

     iteration #  2     ecut=    70.00 Ry     beta=0.70
     Davidson diagonalization with overlap
     ethr =  2.58E-03,  avg # of iterations =  3.8

     negative rho (up, down):  0.169E-04 0.000E+00

     total cpu time spent up to now is       22.9 secs

     total energy              =     -22.79022815 Ry
     Harris-Foulkes estimate   =     -22.79036403 Ry
     estimated scf accuracy    <       0.00251402 Ry

     iteration #  3     ecut=    70.00 Ry     beta=0.70
     Davidson diagonalization with overlap
     ethr =  3.14E-05,  avg # of iterations = 10.7

     negative rho (up, down):  0.186E-04 0.000E+00

     total cpu time spent up to now is       35.8 secs

     total energy              =     -22.79058959 Ry
     Harris-Foulkes estimate   =     -22.79055932 Ry
     estimated scf accuracy    <       0.00013802 Ry

     iteration #  4     ecut=    70.00 Ry     beta=0.70
     Davidson diagonalization with overlap
     ethr =  1.73E-06,  avg # of iterations =  4.6

     negative rho (up, down):  0.187E-04 0.000E+00

     total cpu time spent up to now is       44.4 secs

     total energy              =     -22.79059484 Ry
     Harris-Foulkes estimate   =     -22.79059403 Ry
     estimated scf accuracy    <       0.00000094 Ry

     iteration #  5     ecut=    70.00 Ry     beta=0.70
     Davidson diagonalization with overlap
     ethr =  1.17E-08,  avg # of iterations =  2.4

     negative rho (up, down):  0.187E-04 0.000E+00

     total cpu time spent up to now is       52.7 secs

     total energy              =     -22.79059514 Ry
     Harris-Foulkes estimate   =     -22.79059513 Ry
     estimated scf accuracy    <       0.00000003 Ry

     iteration #  6     ecut=    70.00 Ry     beta=0.70
     Davidson diagonalization with overlap
     ethr =  3.17E-10,  avg # of iterations =  2.0

     negative rho (up, down):  0.186E-04 0.000E+00

     total cpu time spent up to now is       60.5 secs

     End of self-consistent calculation

          k = 0.0000 0.0000 0.0000 ( 10361 PWs)   bands (ev):

   -22.4914 -10.6018  -6.0246  -6.0246   0.3035   1.0417   1.2090   1.5613

          k = 0.0000 0.0962 0.0000 ( 10315 PWs)   bands (ev):

   -22.3271 -10.4050  -6.6722  -6.3638   0.5271   1.2690   1.4388   1.7900

          k = 0.0000 0.1925 0.0000 ( 10291 PWs)   bands (ev):

   -21.8361  -9.8202  -8.3047  -7.1581   1.1978   1.9499   2.1284   2.4755

          k = 0.0000 0.2887 0.0000 ( 10339 PWs)   bands (ev):

   -21.0241 -10.3997  -8.8664  -8.0399   2.3134   3.0721   3.2775   3.6096

          k = 0.0000 0.3849 0.0000 ( 10283 PWs)   bands (ev):

   -19.9031 -12.6021  -8.7749  -7.5941   1.9769   3.8614   4.6830   4.8231

          k = 0.0000 0.4811 0.0000 ( 10338 PWs)   bands (ev):

   -18.5038 -14.7042  -9.2488  -6.1667  -0.1653   4.5770   5.8802   6.6987

          k = 0.0000-0.5774 0.0000 ( 10340 PWs)   bands (ev):

   -17.2295 -16.2207  -9.4114  -5.3190  -1.2671   4.5016   8.1870   8.3398

          k = 0.0833 0.1443 0.0000 ( 10283 PWs)   bands (ev):

   -21.9995 -10.0141  -7.7018  -7.0426   0.9745   1.7232   1.8985   2.2471

          k = 0.0833 0.2406 0.0000 ( 10296 PWs)   bands (ev):

   -21.3480  -9.4074  -9.2436  -8.0420   1.8686   2.6288   2.8179   3.1602

          k = 0.0833 0.3368 0.0000 ( 10331 PWs)   bands (ev):

   -20.3813 -11.4787  -8.9292  -8.1241   2.9920   3.2050   4.0035   4.1969

          k = 0.0833 0.4330 0.0000 ( 10340 PWs)   bands (ev):

   -19.1183 -13.6022  -9.5648  -6.7400   0.7852   4.9543   5.4309   5.7904

          k = 0.0833-0.6255 0.0000 ( 10364 PWs)   bands (ev):

   -17.6333 -15.5483  -9.8936  -5.4263  -0.9896   5.2355   7.1805   7.9838

          k = 0.1667 0.2887 0.0000 ( 10322 PWs)   bands (ev):

   -20.5418 -10.7333  -9.4059  -8.3035   2.9846   3.4510   3.7556   3.9672

          k = 0.1667 0.3849 0.0000 ( 10343 PWs)   bands (ev):

   -19.4318 -12.4602 -10.4620  -7.0464   1.4971   4.5376   5.3148   5.5759

          k = 0.1667-0.6736 0.0000 ( 10348 PWs)   bands (ev):

   -18.0526 -14.3739 -11.0368  -5.6150  -0.4215   6.4990   7.1429   7.2352

          k = 0.1667-0.5774 0.0000 ( 10306 PWs)   bands (ev):

   -16.8087 -15.8183 -11.2213  -4.7191  -1.4933   7.0363   8.6863   8.7476

          k = 0.2500-0.7217 0.0000 ( 10336 PWs)   bands (ev):

   -18.2010 -13.4908 -11.9497  -5.6994  -0.1223   6.2907   6.9520   7.4142

          k = 0.2500-0.6255 0.0000 ( 10338 PWs)   bands (ev):

   -16.7740 -14.9164 -12.6564  -4.3091  -1.6472   7.9506   8.3872   9.2934

          k = 0.3333-0.5774 0.0000 ( 10368 PWs)   bands (ev):

   -15.5524 -15.5524 -13.5626  -2.9490  -2.9490   7.6897   9.9570   9.9570

     the Fermi energy is    -2.9490 ev

!    total energy              =     -22.79059514 Ry
     Harris-Foulkes estimate   =     -22.79059514 Ry
     estimated scf accuracy    <          9.2E-10 Ry

     The total energy is the sum of the following terms:

     one-electron contribution =    -353.76035128 Ry
     hartree contribution      =     177.89019800 Ry
     xc contribution           =      -7.02466763 Ry
     ewald contribution        =     160.10424143 Ry
     smearing contrib. (-TS)   =      -0.00001567 Ry

     convergence has been achieved in   6 iterations

     Writing output data file graphene.save

     init_run     :      4.22s CPU      4.40s WALL (       1 calls)
     electrons    :     53.41s CPU     56.00s WALL (       1 calls)

     Called by init_run:
     wfcinit      :      1.83s CPU      1.92s WALL (       1 calls)
     potinit      :      1.09s CPU      1.11s WALL (       1 calls)

     Called by electrons:
     c_bands      :     36.59s CPU     38.36s WALL (       6 calls)
     sum_band     :     10.33s CPU     10.79s WALL (       6 calls)
     v_of_rho     :      2.65s CPU      2.86s WALL (       7 calls)
     newd         :      3.26s CPU      3.35s WALL (       7 calls)
     mix_rho      :      0.43s CPU      0.45s WALL (       6 calls)

     Called by c_bands:
     init_us_2    :      0.57s CPU      0.69s WALL (     247 calls)
     cegterg      :     35.80s CPU     37.38s WALL (     114 calls)

     Called by *egterg:
     h_psi        :     33.02s CPU     34.52s WALL (     676 calls)
     s_psi        :      0.55s CPU      0.56s WALL (     676 calls)
     g_psi        :      0.17s CPU      0.18s WALL (     543 calls)
     cdiaghg      :      0.30s CPU      0.29s WALL (     657 calls)

     Called by h_psi:
     add_vuspsi   :      0.52s CPU      0.54s WALL (     676 calls)

     General routines
     calbec       :      0.95s CPU      0.97s WALL (     790 calls)
     fft          :      2.62s CPU      2.80s WALL (     107 calls)
     ffts         :      0.08s CPU      0.08s WALL (      13 calls)
     fftw         :     22.32s CPU     23.69s WALL (    6914 calls)
     interpolate  :      0.53s CPU      0.54s WALL (      13 calls)
     davcio       :      0.19s CPU      0.26s WALL (     361 calls)

     Parallel routines
     fft_scatter  :     14.35s CPU     15.67s WALL (    7034 calls)

     PWSCF        :  0m57.93s CPU     1m 0.75s WALL


   This run was terminated on:   2:36:15  26Jul2015            

=------------------------------------------------------------------------------=
   JOB DONE.
=------------------------------------------------------------------------------=
