
     Program PWSCF v.5.0.2 (svn rev. 9656) starts on 11Jul2015 at 20:52:46 

     This program is part of the open-source Quantum ESPRESSO suite
     for quantum simulation of materials; please cite
         "P. Giannozzi et al., J. Phys.:Condens. Matter 21 395502 (2009);
          URL http://www.quantum-espresso.org", 
     in publications or presentations arising from this work. More details at
     http://www.quantum-espresso.org/quote.php

     Parallel version (MPI), running on     4 processors
     R & G space division:  proc/nbgrp/npool/nimage =       4

     Current dimensions of program PWSCF are:
     Max number of different atomic species (ntypx) = 10
     Max number of k-points (npk) =  40000
     Max angular momentum in pseudopotentials (lmaxx) =  3
     Waiting for input...
     Reading input from standard input
               file Cu.pbe.UPF: wavefunction(s)  4S 3D renormalized

     Subspace diagonalization in iterative solution of the eigenvalue problem:
     a serial algorithm will be used


     Parallelization info
     --------------------
     sticks:   dense  smooth     PW     G-vecs:    dense   smooth      PW
     Min         321     321     94                 7681     7681    1227
     Max         322     322     95                 7686     7686    1228
     Sum        1285    1285    379                30731    30731    4909



     bravais-lattice index     =            2
     lattice parameter (alat)  =      10.2000  a.u.
     unit-cell volume          =     265.3020 (a.u.)^3
     number of atoms/cell      =            2
     number of atomic types    =            1
     number of electrons       =        22.00
     number of Kohn-Sham states=           15
     kinetic-energy cutoff     =      90.0000  Ry
     charge density cutoff     =     360.0000  Ry
     convergence threshold     =      1.0E-07
     mixing beta               =       0.7000
     number of iterations used =            8  plain     mixing
     Exchange-correlation      =  SLA  PW   PBX  PBC ( 1 4 3 4 0)
     EXX-fraction              =        0.00

     celldm(1)=  10.200000  celldm(2)=   0.000000  celldm(3)=   0.000000
     celldm(4)=   0.000000  celldm(5)=   0.000000  celldm(6)=   0.000000

     crystal axes: (cart. coord. in units of alat)
               a(1) = (  -0.500000   0.000000   0.500000 )  
               a(2) = (   0.000000   0.500000   0.500000 )  
               a(3) = (  -0.500000   0.500000   0.000000 )  

     reciprocal axes: (cart. coord. in units 2 pi/alat)
               b(1) = ( -1.000000 -1.000000  1.000000 )  
               b(2) = (  1.000000  1.000000  1.000000 )  
               b(3) = ( -1.000000  1.000000 -1.000000 )  


     PseudoPot. # 1 for Cu read from file:
     ./Cu.pbe.UPF
     MD5 check sum: 0c51aa2b3b25e0d1c3270f17c0a46a12
     Pseudo is Projector augmented-wave + core cor, Zval = 11.0
     Generated using "atomic" code by A. Dal Corso  v.5.0.99 svn rev. 10869
     Shape of augmentation charge: BESSEL
     Using radial grid of 1199 points,  6 beta functions with: 
                l(1) =   0
                l(2) =   0
                l(3) =   1
                l(4) =   1
                l(5) =   2
                l(6) =   2
     Q(r) pseudized with 0 coefficients 


     atomic species   valence    mass     pseudopotential
        Cu            11.00    63.54600     Cu( 1.00)

     24 Sym. Ops. (no inversion) found
          (note: 24 additional sym.ops. were found but ignored
           their fractional translations are incommensurate with FFT grid)


   Cartesian axes

     site n.     atom                  positions (alat units)
         1           Cu  tau(   1) = (   0.0000000   0.0000000   0.0000000  )
         2           Cu  tau(   2) = (   0.2500000   0.2500000   0.2500000  )

     number of k points=    72  gaussian smearing, width (Ry)=  0.0030
                       cart. coord. in units 2pi/alat
        k(    1) = (   0.0000000   0.0000000   0.0000000), wk =   0.0011574
        k(    2) = (  -0.0833333   0.0833333  -0.0833333), wk =   0.0092593
        k(    3) = (  -0.1666667   0.1666667  -0.1666667), wk =   0.0092593
        k(    4) = (  -0.2500000   0.2500000  -0.2500000), wk =   0.0092593
        k(    5) = (  -0.3333333   0.3333333  -0.3333333), wk =   0.0092593
        k(    6) = (  -0.4166667   0.4166667  -0.4166667), wk =   0.0092593
        k(    7) = (   0.5000000  -0.5000000   0.5000000), wk =   0.0046296
        k(    8) = (   0.0000000   0.1666667   0.0000000), wk =   0.0069444
        k(    9) = (  -0.0833333   0.2500000  -0.0833333), wk =   0.0277778
        k(   10) = (  -0.1666667   0.3333333  -0.1666667), wk =   0.0277778
        k(   11) = (  -0.2500000   0.4166667  -0.2500000), wk =   0.0277778
        k(   12) = (  -0.3333333   0.5000000  -0.3333333), wk =   0.0277778
        k(   13) = (   0.5833333  -0.4166667   0.5833333), wk =   0.0277778
        k(   14) = (   0.5000000  -0.3333333   0.5000000), wk =   0.0277778
        k(   15) = (   0.4166667  -0.2500000   0.4166667), wk =   0.0277778
        k(   16) = (   0.3333333  -0.1666667   0.3333333), wk =   0.0277778
        k(   17) = (   0.2500000  -0.0833333   0.2500000), wk =   0.0277778
        k(   18) = (   0.1666667  -0.0000000   0.1666667), wk =   0.0138889
        k(   19) = (   0.0000000   0.3333333   0.0000000), wk =   0.0069444
        k(   20) = (  -0.0833333   0.4166667  -0.0833333), wk =   0.0277778
        k(   21) = (  -0.1666667   0.5000000  -0.1666667), wk =   0.0277778
        k(   22) = (  -0.2500000   0.5833333  -0.2500000), wk =   0.0277778
        k(   23) = (   0.6666667  -0.3333333   0.6666667), wk =   0.0277778
        k(   24) = (   0.5833333  -0.2500000   0.5833333), wk =   0.0277778
        k(   25) = (   0.5000000  -0.1666667   0.5000000), wk =   0.0277778
        k(   26) = (   0.4166667  -0.0833333   0.4166667), wk =   0.0277778
        k(   27) = (   0.3333333   0.0000000   0.3333333), wk =   0.0138889
        k(   28) = (   0.0000000   0.5000000   0.0000000), wk =   0.0069444
        k(   29) = (  -0.0833333   0.5833333  -0.0833333), wk =   0.0277778
        k(   30) = (  -0.1666667   0.6666667  -0.1666667), wk =   0.0277778
        k(   31) = (   0.7500000  -0.2500000   0.7500000), wk =   0.0277778
        k(   32) = (   0.6666667  -0.1666667   0.6666667), wk =   0.0277778
        k(   33) = (   0.5833333  -0.0833333   0.5833333), wk =   0.0277778
        k(   34) = (   0.5000000   0.0000000   0.5000000), wk =   0.0138889
        k(   35) = (   0.0000000   0.6666667   0.0000000), wk =   0.0069444
        k(   36) = (  -0.0833333   0.7500000  -0.0833333), wk =   0.0277778
        k(   37) = (   0.8333333  -0.1666667   0.8333333), wk =   0.0277778
        k(   38) = (   0.7500000  -0.0833333   0.7500000), wk =   0.0277778
        k(   39) = (   0.6666667  -0.0000000   0.6666667), wk =   0.0138889
        k(   40) = (   0.0000000   0.8333333   0.0000000), wk =   0.0069444
        k(   41) = (   0.9166667  -0.0833333   0.9166667), wk =   0.0277778
        k(   42) = (   0.8333333   0.0000000   0.8333333), wk =   0.0138889
        k(   43) = (   0.0000000  -1.0000000   0.0000000), wk =   0.0034722
        k(   44) = (  -0.1666667   0.3333333   0.0000000), wk =   0.0277778
        k(   45) = (  -0.2500000   0.4166667  -0.0833333), wk =   0.0555556
        k(   46) = (  -0.3333333   0.5000000  -0.1666667), wk =   0.0555556
        k(   47) = (   0.5833333  -0.4166667   0.7500000), wk =   0.0555556
        k(   48) = (   0.5000000  -0.3333333   0.6666667), wk =   0.0277778
        k(   49) = (  -0.1666667   0.5000000   0.0000000), wk =   0.0277778
        k(   50) = (  -0.2500000   0.5833333  -0.0833333), wk =   0.0555556
        k(   51) = (   0.6666667  -0.3333333   0.8333333), wk =   0.0555556
        k(   52) = (   0.5833333  -0.2500000   0.7500000), wk =   0.0555556
        k(   53) = (   0.5000000  -0.1666667   0.6666667), wk =   0.0555556
        k(   54) = (   0.4166667  -0.0833333   0.5833333), wk =   0.0555556
        k(   55) = (   0.3333333   0.0000000   0.5000000), wk =   0.0277778
        k(   56) = (  -0.1666667   0.6666667  -0.0000000), wk =   0.0277778
        k(   57) = (   0.7500000  -0.2500000   0.9166667), wk =   0.0555556
        k(   58) = (   0.6666667  -0.1666667   0.8333333), wk =   0.0555556
        k(   59) = (   0.5833333  -0.0833333   0.7500000), wk =   0.0555556
        k(   60) = (   0.5000000   0.0000000   0.6666667), wk =   0.0277778
        k(   61) = (   0.8333333  -0.1666667   1.0000000), wk =   0.0277778
        k(   62) = (   0.7500000  -0.0833333   0.9166667), wk =   0.0555556
        k(   63) = (   0.6666667   0.0000000   0.8333333), wk =   0.0277778
        k(   64) = (  -0.1666667  -1.0000000  -0.0000000), wk =   0.0138889
        k(   65) = (   0.6666667  -0.3333333   1.0000000), wk =   0.0277778
        k(   66) = (   0.5833333  -0.2500000   0.9166667), wk =   0.0555556
        k(   67) = (   0.5000000  -0.1666667   0.8333333), wk =   0.0277778
        k(   68) = (   0.6666667  -0.1666667   1.0000000), wk =   0.0277778
        k(   69) = (   0.5833333  -0.0833333   0.9166667), wk =   0.0555556
        k(   70) = (   0.5000000   0.0000000   0.8333333), wk =   0.0277778
        k(   71) = (  -0.3333333  -1.0000000   0.0000000), wk =   0.0138889
        k(   72) = (  -0.5000000  -1.0000000   0.0000000), wk =   0.0069444

     Dense  grid:    30731 G-vectors     FFT dimensions: (  45,  45,  45)

     Largest allocated arrays     est. size (Mb)     dimensions
        Kohn-Sham Wavefunctions         0.22 Mb     (    972,   15)
        NL pseudopotentials             0.53 Mb     (    972,   36)
        Each V/rho on FFT grid          0.37 Mb     (  24300)
        Each G-vector array             0.06 Mb     (   7683)
        G-vector shells                 0.00 Mb     (    319)
     Largest temporary arrays     est. size (Mb)     dimensions
        Auxiliary wavefunctions         0.89 Mb     (    972,   60)
        Each subspace H/S matrix        0.05 Mb     (  60,  60)
        Each <psi_i|beta_j> matrix      0.01 Mb     (     36,   15)
        Arrays for rho mixing           2.97 Mb     (  24300,   8)

     Check: negative/imaginary core charge=   -0.000024    0.000000

     Initial potential from superposition of free atoms

     starting charge   21.99954, renormalised to   22.00000
     Starting wfc are   18 randomized atomic wfcs
     Checking if some PAW data can be deallocated... 

     total cpu time spent up to now is        7.0 secs

     per-process dynamical memory:    16.1 Mb

     Self-consistent Calculation

     iteration #  1     ecut=    90.00 Ry     beta=0.70
     Davidson diagonalization with overlap
     ethr =  1.00E-02,  avg # of iterations =  3.7

     Threshold (ethr) on eigenvalues was too large:
     Diagonalizing with lowered threshold

     Davidson diagonalization with overlap
     ethr =  1.05E-04,  avg # of iterations =  3.4

     total cpu time spent up to now is       34.2 secs

     total energy              =    -426.02674973 Ry
     Harris-Foulkes estimate   =    -426.04138446 Ry
     estimated scf accuracy    <       0.02182509 Ry

     iteration #  2     ecut=    90.00 Ry     beta=0.70
     Davidson diagonalization with overlap
     ethr =  9.92E-05,  avg # of iterations =  3.1

     total cpu time spent up to now is       50.6 secs

     total energy              =    -426.01114442 Ry
     Harris-Foulkes estimate   =    -426.07104218 Ry
     estimated scf accuracy    <       0.21186663 Ry

     iteration #  3     ecut=    90.00 Ry     beta=0.70
     Davidson diagonalization with overlap
     ethr =  9.92E-05,  avg # of iterations =  3.0

     total cpu time spent up to now is       65.5 secs

     total energy              =    -426.03786856 Ry
     Harris-Foulkes estimate   =    -426.03990465 Ry
     estimated scf accuracy    <       0.00425977 Ry

     iteration #  4     ecut=    90.00 Ry     beta=0.70
     Davidson diagonalization with overlap
     ethr =  1.94E-05,  avg # of iterations =  2.3

     total cpu time spent up to now is       79.0 secs

     total energy              =    -426.03890882 Ry
     Harris-Foulkes estimate   =    -426.03961404 Ry
     estimated scf accuracy    <       0.00247362 Ry

     iteration #  5     ecut=    90.00 Ry     beta=0.70
     Davidson diagonalization with overlap
     ethr =  1.12E-05,  avg # of iterations =  1.2

     total cpu time spent up to now is       89.6 secs

     total energy              =    -426.03919983 Ry
     Harris-Foulkes estimate   =    -426.03920497 Ry
     estimated scf accuracy    <       0.00001762 Ry

     iteration #  6     ecut=    90.00 Ry     beta=0.70
     Davidson diagonalization with overlap
     ethr =  8.01E-08,  avg # of iterations =  3.0

     total cpu time spent up to now is      105.4 secs

     total energy              =    -426.03922549 Ry
     Harris-Foulkes estimate   =    -426.03922649 Ry
     estimated scf accuracy    <       0.00000497 Ry

     iteration #  7     ecut=    90.00 Ry     beta=0.70
     Davidson diagonalization with overlap
     ethr =  2.26E-08,  avg # of iterations =  1.0

     total cpu time spent up to now is      116.0 secs

     total energy              =    -426.03922566 Ry
     Harris-Foulkes estimate   =    -426.03922580 Ry
     estimated scf accuracy    <       0.00000070 Ry

     iteration #  8     ecut=    90.00 Ry     beta=0.70
     Davidson diagonalization with overlap
     ethr =  3.20E-09,  avg # of iterations =  2.0

     total cpu time spent up to now is      127.4 secs

     End of self-consistent calculation

          k = 0.0000 0.0000 0.0000 (  3839 PWs)   bands (ev):

     0.6700   3.9728   3.9728   3.9728   3.9957   3.9957   5.0280   5.0280
     5.0280   5.6515   5.6515  16.3826  16.3826  16.3826  17.3262

          k =-0.0833 0.0833-0.0833 (  3797 PWs)   bands (ev):

     0.7765   3.9123   3.9123   3.9749   4.0734   4.0734   5.0060   5.0243
     5.0243   5.6521   5.6521  14.7288  15.8713  15.8713  17.8078

          k =-0.1667 0.1667-0.1667 (  3801 PWs)   bands (ev):

     1.0905   3.8713   3.8713   3.9837   4.1553   4.1553   4.9480   5.0237
     5.0237   5.6508   5.6508  12.5993  15.1749  15.1749  17.6944

          k =-0.2500 0.2500-0.2500 (  3807 PWs)   bands (ev):

     1.5901   3.8646   3.8646   4.0031   4.2001   4.2001   4.8821   5.0502
     5.0502   5.6414   5.6414  10.5923  14.5839  14.5839  17.5597

          k =-0.3333 0.3333-0.3333 (  3801 PWs)   bands (ev):

     2.2160   3.8908   3.8908   4.0284   4.1892   4.1892   4.8769   5.1148
     5.1148   5.6189   5.6189   8.7926  14.1396  14.1396  17.5315

          k =-0.4167 0.4167-0.4167 (  3825 PWs)   bands (ev):

     2.8084   3.9410   3.9410   4.0330   4.1371   4.1371   5.0809   5.1920
     5.1920   5.5871   5.5871   7.2821  13.8631  13.8631  17.6168

          k = 0.5000-0.5000 0.5000 (  3828 PWs)   bands (ev):

     3.0674   3.9789   3.9789   4.0200   4.0963   4.0963   5.2292   5.2292
     5.4340   5.5691   5.5691   6.4436  13.7690  13.7690  17.7198

          k = 0.0000 0.1667 0.0000 (  3803 PWs)   bands (ev):

     0.8122   3.8542   3.9790   3.9790   4.0267   4.1209   4.9412   5.0533
     5.0533   5.6263   5.6749  15.1153  15.1153  15.6540  16.7267

          k =-0.0833 0.2500-0.0833 (  3811 PWs)   bands (ev):

     1.0576   3.8031   3.9512   3.9853   4.1005   4.1961   4.8577   5.0663
     5.0797   5.6020   5.6913  13.3166  14.4042  15.2718  16.9547

          k =-0.1667 0.3333-0.1667 (  3813 PWs)   bands (ev):

     1.4974   3.7822   3.9392   3.9961   4.1581   4.2585   4.7884   5.0699
     5.1200   5.5781   5.6982  11.2892  13.8436  14.6468  17.1975

          k =-0.2500 0.4167-0.2500 (  3822 PWs)   bands (ev):

     2.0879   3.7947   3.9544   4.0129   4.1660   4.2714   4.7726   5.1060
     5.1810   5.5539   5.6901   9.4231  13.4739  14.0159  16.9539

          k =-0.3333 0.5000-0.3333 (  3821 PWs)   bands (ev):

     2.7107   3.8321   3.9811   4.0232   4.1403   4.2304   4.8770   5.2301
     5.2305   5.5433   5.6624   7.7993  13.3206  13.4691  16.7889

          k = 0.5833-0.4167 0.5833 (  3807 PWs)   bands (ev):

     3.1061   3.8734   3.9682   4.0282   4.1472   4.1624   5.0648   5.2140
     5.5535   5.5730   5.6397   6.5882  13.0680  13.3960  16.8203

          k = 0.5000-0.3333 0.5000 (  3811 PWs)   bands (ev):

     3.0173   3.9075   3.9152   4.0619   4.0982   4.2051   5.0893   5.1358
     5.4486   5.5600   5.6260   6.9225  12.8570  13.6945  17.0561

          k = 0.4167-0.2500 0.4167 (  3824 PWs)   bands (ev):

     2.5098   3.8477   3.9386   4.0296   4.1294   4.2625   4.8996   5.0417
     5.2808   5.5440   5.6692   8.3142  12.8579  14.1901  17.4868

          k = 0.3333-0.1667 0.3333 (  3811 PWs)   bands (ev):

     1.8773   3.8118   3.9262   4.0013   4.1593   4.2798   4.8416   4.9762
     5.2014   5.5652   5.6908  10.0287  13.0708  14.8374  18.0398

          k = 0.2500-0.0833 0.2500 (  3814 PWs)   bands (ev):

     1.3298   3.8099   3.9159   3.9886   4.1442   4.2386   4.8812   4.9636
     5.1357   5.5950   5.6913  11.9604  13.4811  15.5641  18.1107

          k = 0.1667-0.0000 0.1667 (  3805 PWs)   bands (ev):

     0.9525   3.8449   3.9221   3.9829   4.0938   4.1585   4.9482   4.9893
     5.0807   5.6247   5.6760  13.9409  14.1455  16.1483  17.6279

          k = 0.0000 0.3333 0.0000 (  3823 PWs)   bands (ev):

     1.2336   3.7402   3.9931   3.9931   4.1169   4.2563   4.7250   5.1323
     5.1323   5.5516   5.7182  13.6595  13.6595  14.1933  15.8774

          k =-0.0833 0.4167-0.0833 (  3819 PWs)   bands (ev):

     1.6076   3.7047   3.9925   3.9986   4.1813   4.3212   4.6119   5.1755
     5.1896   5.5057   5.7364  12.0216  13.0630  13.7094  16.0067

          k =-0.1667 0.5000-0.1667 (  3828 PWs)   bands (ev):

     2.1459   3.7025   3.9959   3.9987   4.2205   4.3498   4.5699   5.2233
     5.2452   5.4780   5.7464  10.1649  12.6696  13.0051  16.0170

          k =-0.2500 0.5833-0.2500 (  3820 PWs)   bands (ev):

     2.7566   3.7256   3.9922   3.9946   4.2362   4.3128   4.6528   5.2453
     5.3483   5.5072   5.7453   8.4734  12.3002  12.5151  15.9096

          k = 0.6667-0.3333 0.6667 (  3832 PWs)   bands (ev):

     3.2260   3.7533   3.9632   3.9906   4.2469   4.2656   4.8404   5.1726
     5.5836   5.6179   5.8231   7.0470  11.7226  12.6186  15.9610

          k = 0.5833-0.2500 0.5833 (  3822 PWs)   bands (ev):

     3.2883   3.8039   3.9031   4.0245   4.1619   4.3197   4.9971   5.0663
     5.6091   5.6556   5.9245   6.7136  11.3347  12.9766  16.1965

          k = 0.5000-0.1667 0.5000 (  3817 PWs)   bands (ev):

     2.9176   3.8401   3.8787   4.0714   4.0840   4.3716   4.9621   4.9721
     5.4520   5.5412   5.7027   8.0099  11.1706  13.5601  16.6185

          k = 0.4167-0.0833 0.4167 (  3813 PWs)   bands (ev):

     2.3293   3.7960   3.9344   3.9990   4.1324   4.3802   4.8565   4.9031
     5.3686   5.4847   5.7223   9.6283  11.2433  14.3118  17.2285

          k = 0.3333 0.0000 0.3333 (  3811 PWs)   bands (ev):

     1.7587   3.7840   3.9483   3.9740   4.1503   4.3256   4.8342   4.9127
     5.2578   5.5309   5.7169  11.3302  11.6692  15.1078  18.0160

          k = 0.0000 0.5000 0.0000 (  3831 PWs)   bands (ev):

     1.9143   3.6542   4.0062   4.0062   4.2589   4.3814   4.4482   5.2663
     5.2663   5.4309   5.7658  12.3714  12.4082  12.4082  15.2289

          k =-0.0833 0.5833-0.0833 (  3829 PWs)   bands (ev):

     2.3901   3.6390   3.9998   4.0084   4.3309   4.3380   4.4360   5.3062
     5.3429   5.4053   5.7970  10.8196  11.9003  11.9530  15.3218

          k =-0.1667 0.6667-0.1667 (  3837 PWs)   bands (ev):

     2.9576   3.6533   3.9635   4.0014   4.3064   4.3794   4.4990   5.2252
     5.4606   5.5004   5.8391   9.2207  11.0966  11.7454  15.3063

          k = 0.7500-0.2500 0.7500 (  3830 PWs)   bands (ev):

     3.4314   3.6746   3.9347   3.9736   4.2865   4.4214   4.6419   5.1134
     5.6004   5.6589   5.9989   7.7598  10.3828  11.8133  15.3498

          k = 0.6667-0.1667 0.6667 (  3834 PWs)   bands (ev):

     3.5538   3.7382   3.9231   3.9570   4.2161   4.4696   4.8441   4.9893
     5.6749   5.7066   6.5201   6.7401   9.8584  12.1552  15.5530

          k = 0.5833-0.0833 0.5833 (  3826 PWs)   bands (ev):

     3.3313   3.8178   3.8643   4.0188   4.1248   4.5042   4.8841   4.9730
     5.6391   5.7181   5.7502   7.9052   9.5726  12.7382  15.9287

          k = 0.5000 0.0000 0.5000 (  3803 PWs)   bands (ev):

     2.8689   3.8167   3.8775   4.0486   4.0871   4.4731   4.8552   4.9460
     5.4525   5.5308   5.7326   9.2434   9.7057  13.4989  16.4855

          k = 0.0000 0.6667 0.0000 (  3856 PWs)   bands (ev):

     2.7982   3.6139   4.0128   4.0128   4.1653   4.4411   4.4765   5.2702
     5.4375   5.4375   5.8615  10.3938  11.4215  11.4215  14.8161

          k =-0.0833 0.7500-0.0833 (  3835 PWs)   bands (ev):

     3.2984   3.6246   3.9512   4.0097   4.1375   4.4981   4.5258   5.1668
     5.5346   5.5364   5.9674   9.3560  10.6129  11.1380  14.9029

          k = 0.8333-0.1667 0.8333 (  3830 PWs)   bands (ev):

     3.6491   3.7056   3.8749   3.9917   4.2344   4.5252   4.5892   5.0432
     5.6235   5.6729   6.2142   8.3143   9.5447  11.1425  14.9412

          k = 0.7500-0.0833 0.7500 (  3833 PWs)   bands (ev):

     3.6431   3.8485   3.8921   3.9554   4.2469   4.6381   4.6770   4.9118
     5.6837   5.7607   6.7627   7.3800   8.7317  11.4395  15.1039

          k = 0.6667-0.0000 0.6667 (  3833 PWs)   bands (ev):

     3.5805   3.8391   3.9081   3.9389   4.1817   4.6235   4.8400   4.8547
     5.7133   5.7486   6.3238   7.8202   8.4479  11.9936  15.4284

          k = 0.0000 0.8333 0.0000 (  3836 PWs)   bands (ev):

     3.6375   3.7149   3.9212   4.0142   4.0142   4.4957   4.6488   5.0782
     5.5937   5.5937   6.1689   8.5328  10.7705  10.7705  14.6222

          k = 0.9167-0.0833 0.9167 (  3841 PWs)   bands (ev):

     3.6760   3.8060   3.9728   4.0077   4.1674   4.4515   4.7426   4.9631
     5.6480   5.6661   6.5342   7.7436  10.0754  10.6965  14.7068

          k = 0.8333 0.0000 0.8333 (  3835 PWs)   bands (ev):

     3.6710   3.7967   3.9869   3.9921   4.2825   4.5065   4.7850   4.8549
     5.6776   5.7381   7.1307   7.1627   9.0195  10.9307  14.8281

          k = 0.0000-1.0000 0.0000 (  3860 PWs)   bands (ev):

     3.7380   3.7380   4.0140   4.0140   4.3162   4.3162   4.8664   4.8665
     5.6593   5.6593   7.0340   7.0341  10.5392  10.5392  14.6351

          k =-0.1667 0.3333 0.0000 (  3822 PWs)   bands (ev):

     1.3672   3.7600   3.9627   3.9895   4.1397   4.2689   4.7581   5.0580
     5.1646   5.5595   5.7126  12.5791  12.8520  15.0199  16.9247

          k =-0.2500 0.4167-0.0833 (  3810 PWs)   bands (ev):

     1.8576   3.7485   3.9700   3.9910   4.1681   4.3307   4.6980   5.0580
     5.2522   5.5162   5.7246  10.7525  12.2921  14.3538  17.1263

          k =-0.3333 0.5000-0.1667 (  3821 PWs)   bands (ev):

     2.4645   3.7685   3.9522   4.0253   4.1599   4.3379   4.7281   5.1028
     5.3312   5.5006   5.7197   8.9771  12.0320  13.6223  16.9305

          k = 0.5833-0.4167 0.7500 (  3821 PWs)   bands (ev):

     3.0240   3.8023   3.9180   4.0570   4.1522   4.2929   4.8731   5.1601
     5.4808   5.5563   5.6991   7.4480  11.9619  13.0460  16.7979

          k = 0.5000-0.3333 0.6667 (  3824 PWs)   bands (ev):

     3.2631   3.8125   3.9001   4.0509   4.1830   4.2480   4.9925   5.1307
     5.6076   5.6277   5.9893   6.4572  11.9820  12.8027  16.7589

          k =-0.1667 0.5000 0.0000 (  3821 PWs)   bands (ev):

     2.0330   3.6788   3.9866   4.0097   4.2359   4.3841   4.5035   5.1974
     5.3023   5.4489   5.7589  11.3238  11.7291  13.1760  16.1762

          k =-0.2500 0.5833-0.0833 (  3831 PWs)   bands (ev):

     2.5913   3.6851   3.9505   4.0282   4.2649   4.3987   4.5100   5.2123
     5.3889   5.4557   5.7785   9.7273  11.2316  12.4716  16.2921

          k = 0.6667-0.3333 0.8333 (  3824 PWs)   bands (ev):

     3.1474   3.7085   3.9054   4.0376   4.2784   4.3636   4.6465   5.1645
     5.5305   5.5708   5.8117   8.1500  10.9799  11.9357  16.2654

          k = 0.5833-0.2500 0.7500 (  3829 PWs)   bands (ev):

     3.4656   3.7256   3.8723   4.0365   4.2568   4.3632   4.8338   5.0612
     5.6397   5.6872   6.2335   6.8284  10.6833  11.8720  16.3910

          k = 0.5000-0.1667 0.6667 (  3830 PWs)   bands (ev):

     3.3700   3.7769   3.8497   4.0568   4.1841   4.4112   4.8575   5.0462
     5.6252   5.6897   5.9167   7.2893  10.4189  12.2367  16.6785

          k = 0.4167-0.0833 0.5833 (  3823 PWs)   bands (ev):

     2.9423   3.7713   3.8820   4.0646   4.1438   4.4450   4.7247   5.0853
     5.4607   5.5410   5.7481   8.7111  10.3420  12.8667  17.1131

          k = 0.3333 0.0000 0.5000 (  3826 PWs)   bands (ev):

     2.3723   3.7463   3.9381   4.0196   4.1644   4.4129   4.6640   5.0557
     5.3989   5.4502   5.7435  10.2209  10.6463  13.6466  17.6238

          k =-0.1667 0.6667-0.0000 (  3835 PWs)   bands (ev):

     2.8832   3.6349   3.9547   4.0249   4.2708   4.4004   4.4779   5.2367
     5.4504   5.4727   5.8518  10.0496  10.8456  11.4531  15.6733

          k = 0.7500-0.2500 0.9167 (  3830 PWs)   bands (ev):

     3.3881   3.6555   3.8847   4.0296   4.3035   4.4408   4.5334   5.1252
     5.5751   5.6003   5.9646   8.8338  10.1288  11.0069  15.7954

          k = 0.6667-0.1667 0.8333 (  3836 PWs)   bands (ev):

     3.6594   3.6995   3.8569   4.0187   4.3010   4.5088   4.6630   4.9956
     5.6640   5.7288   6.3653   7.5860   9.4921  11.0536  15.9094

          k = 0.5833-0.0833 0.7500 (  3827 PWs)   bands (ev):

     3.6069   3.7875   3.8454   4.0231   4.2312   4.5615   4.7918   4.9124
     5.7062   5.7411   6.4422   7.3814   9.0377  11.4457  16.1869

          k = 0.5000 0.0000 0.6667 (  3824 PWs)   bands (ev):

     3.3800   3.7963   3.8275   4.0586   4.1627   4.5505   4.7333   5.0190
     5.6648   5.6714   5.8321   8.4572   9.0144  12.0798  16.6225

          k = 0.8333-0.1667 1.0000 (  3836 PWs)   bands (ev):

     3.6474   3.7074   3.8605   4.0260   4.1649   4.4898   4.6209   5.0566
     5.6213   5.6245   6.1848   8.5270  10.2720  10.4474  15.4119

          k = 0.7500-0.0833 0.9167 (  3834 PWs)   bands (ev):

     3.6707   3.7736   3.9342   4.0193   4.3025   4.5018   4.6939   4.9230
     5.6827   5.7241   6.6387   7.7787   9.2226  10.4470  15.5629

          k = 0.6667 0.0000 0.8333 (  3834 PWs)   bands (ev):

     3.6515   3.7961   3.9373   4.0045   4.2818   4.6575   4.7054   4.8313
     5.7087   5.7744   7.0138   7.4271   8.4174  10.8237  15.7959

          k =-0.1667-1.0000-0.0000 (  3846 PWs)   bands (ev):

     3.7254   3.7254   4.0131   4.0131   4.3585   4.3585   4.8412   4.8413
     5.6872   5.6872   7.0938   7.0938  10.1061  10.1061  15.3784

          k = 0.6667-0.3333 1.0000 (  3825 PWs)   bands (ev):

     3.1070   3.6972   3.8794   4.0540   4.2839   4.4900   4.5010   5.1487
     5.5024   5.5603   5.8263   9.2635   9.8643  11.7075  17.4940

          k = 0.5833-0.2500 0.9167 (  3831 PWs)   bands (ev):

     3.5127   3.7161   3.8337   4.0597   4.3039   4.4785   4.6522   5.0352
     5.6549   5.6960   6.0411   8.0271   9.6179  11.0627  17.3506

          k = 0.5000-0.1667 0.8333 (  3834 PWs)   bands (ev):

     3.6654   3.7000   3.8340   4.0546   4.3210   4.4632   4.7782   4.9366
     5.6982   5.7369   6.6424   7.0203   9.6409  10.7904  17.3341

          k = 0.6667-0.1667 1.0000 (  3831 PWs)   bands (ev):

     3.6788   3.6844   3.8456   4.0486   4.4106   4.4423   4.5939   4.9917
     5.6896   5.6932   6.2776   8.3493   9.3916  10.1183  17.1651

          k = 0.5833-0.0833 0.9167 (  3822 PWs)   bands (ev):

     3.6799   3.7236   3.9245   4.0404   4.3975   4.5584   4.6776   4.8527
     5.7307   5.7649   6.8681   7.5995   8.8699   9.9180  17.3127

          k = 0.5000 0.0000 0.8333 (  3825 PWs)   bands (ev):

     3.6602   3.7327   3.8800   4.0497   4.3462   4.6237   4.6312   4.8893
     5.7300   5.7555   6.5784   7.8830   8.6706  10.3366  17.5700

          k =-0.3333-1.0000 0.0000 (  3832 PWs)   bands (ev):

     3.7039   3.7039   4.0098   4.0098   4.4546   4.4547   4.7784   4.7785
     5.7413   5.7413   7.2591   7.2591   9.3755   9.3756  17.0583

          k =-0.5000-1.0000 0.0000 (  3828 PWs)   bands (ev):

     3.6945   3.6945   4.0077   4.0078   4.5179   4.5180   4.7314   4.7315
     5.7673   5.7673   7.3835   7.3835   9.0193   9.0193  18.6516

     the Fermi energy is     6.8161 ev

!    total energy              =    -426.03922572 Ry
     Harris-Foulkes estimate   =    -426.03922575 Ry
     estimated scf accuracy    <       0.00000003 Ry

     total all-electron energy =     -6619.798762 Ry

     The total energy is the sum of the following terms:

     one-electron contribution =    -116.82963041 Ry
     hartree contribution      =      57.86986914 Ry
     xc contribution           =     -73.47184596 Ry
     ewald contribution        =    -127.80442418 Ry
     one-center paw contrib.   =    -165.80313695 Ry
     smearing contrib. (-TS)   =      -0.00005735 Ry

     convergence has been achieved in   8 iterations

     Writing output data file Cu.save

     init_run     :      5.96s CPU      6.18s WALL (       1 calls)
     electrons    :    117.91s CPU    120.39s WALL (       1 calls)

     Called by init_run:
     wfcinit      :      4.55s CPU      4.71s WALL (       1 calls)
     potinit      :      0.42s CPU      0.43s WALL (       1 calls)

     Called by electrons:
     c_bands      :     96.08s CPU     97.96s WALL (       9 calls)
     sum_band     :     17.13s CPU     17.50s WALL (       9 calls)
     v_of_rho     :      0.43s CPU      0.44s WALL (       9 calls)
     newd         :      0.90s CPU      1.00s WALL (       9 calls)
     mix_rho      :      0.51s CPU      0.53s WALL (       9 calls)

     Called by c_bands:
     init_us_2    :      2.01s CPU      2.10s WALL (    1368 calls)
     cegterg      :     90.79s CPU     92.43s WALL (     648 calls)

     Called by *egterg:
     h_psi        :     81.42s CPU     82.96s WALL (    2359 calls)
     s_psi        :      2.19s CPU      2.20s WALL (    2359 calls)
     g_psi        :      0.62s CPU      0.63s WALL (    1639 calls)
     cdiaghg      :      2.85s CPU      2.87s WALL (    2215 calls)

     Called by h_psi:
     add_vuspsi   :      2.18s CPU      2.20s WALL (    2359 calls)

     General routines
     calbec       :      2.96s CPU      3.01s WALL (    3007 calls)
     fft          :      0.19s CPU      0.20s WALL (     119 calls)
     fftw         :     80.88s CPU     82.64s WALL (   63814 calls)
     davcio       :      0.37s CPU      0.38s WALL (    2016 calls)

     Parallel routines
     fft_scatter  :     19.85s CPU     20.13s WALL (   63933 calls)

     PAW routines
     PAW_pot      :      3.26s CPU      3.35s WALL (       9 calls)
     PAW_ddot     :      0.47s CPU      0.49s WALL (      86 calls)
     PAW_symme    :      0.01s CPU      0.01s WALL (      18 calls)

     PWSCF        :  2m 5.11s CPU     2m 7.85s WALL


   This run was terminated on:  20:54:54  11Jul2015            

=------------------------------------------------------------------------------=
   JOB DONE.
=------------------------------------------------------------------------------=
