
     Program PWSCF v.5.0.2 (svn rev. 9656) starts on 11Jul2015 at 19:11:10 

     This program is part of the open-source Quantum ESPRESSO suite
     for quantum simulation of materials; please cite
         "P. Giannozzi et al., J. Phys.:Condens. Matter 21 395502 (2009);
          URL http://www.quantum-espresso.org", 
     in publications or presentations arising from this work. More details at
     http://www.quantum-espresso.org/quote.php

     Parallel version (MPI), running on     4 processors
     R & G space division:  proc/nbgrp/npool/nimage =       4

     Current dimensions of program PWSCF are:
     Max number of different atomic species (ntypx) = 10
     Max number of k-points (npk) =  40000
     Max angular momentum in pseudopotentials (lmaxx) =  3
     Waiting for input...
     Reading input from standard input
               file Cu.pbe.UPF: wavefunction(s)  4S 3D renormalized

     Subspace diagonalization in iterative solution of the eigenvalue problem:
     a serial algorithm will be used


     Parallelization info
     --------------------
     sticks:   dense  smooth     PW     G-vecs:    dense   smooth      PW
     Min         231     231     70                 4690     4690     779
     Max         234     234     71                 4691     4691     780
     Sum         931     931    283                18763    18763    3119



     bravais-lattice index     =            2
     lattice parameter (alat)  =      10.6000  a.u.
     unit-cell volume          =     297.7540 (a.u.)^3
     number of atoms/cell      =            2
     number of atomic types    =            1
     number of electrons       =        22.00
     number of Kohn-Sham states=           15
     kinetic-energy cutoff     =      60.0000  Ry
     charge density cutoff     =     240.0000  Ry
     convergence threshold     =      1.0E-07
     mixing beta               =       0.7000
     number of iterations used =            8  plain     mixing
     Exchange-correlation      =  SLA  PW   PBX  PBC ( 1 4 3 4 0)
     EXX-fraction              =        0.00

     celldm(1)=  10.600000  celldm(2)=   0.000000  celldm(3)=   0.000000
     celldm(4)=   0.000000  celldm(5)=   0.000000  celldm(6)=   0.000000

     crystal axes: (cart. coord. in units of alat)
               a(1) = (  -0.500000   0.000000   0.500000 )  
               a(2) = (   0.000000   0.500000   0.500000 )  
               a(3) = (  -0.500000   0.500000   0.000000 )  

     reciprocal axes: (cart. coord. in units 2 pi/alat)
               b(1) = ( -1.000000 -1.000000  1.000000 )  
               b(2) = (  1.000000  1.000000  1.000000 )  
               b(3) = ( -1.000000  1.000000 -1.000000 )  


     PseudoPot. # 1 for Cu read from file:
     ./Cu.pbe.UPF
     MD5 check sum: 0c51aa2b3b25e0d1c3270f17c0a46a12
     Pseudo is Projector augmented-wave + core cor, Zval = 11.0
     Generated using "atomic" code by A. Dal Corso  v.5.0.99 svn rev. 10869
     Shape of augmentation charge: BESSEL
     Using radial grid of 1199 points,  6 beta functions with: 
                l(1) =   0
                l(2) =   0
                l(3) =   1
                l(4) =   1
                l(5) =   2
                l(6) =   2
     Q(r) pseudized with 0 coefficients 


     atomic species   valence    mass     pseudopotential
        Cu            11.00    63.54600     Cu( 1.00)

     48 Sym. Ops., with inversion, found (24 have fractional translation)



   Cartesian axes

     site n.     atom                  positions (alat units)
         1           Cu  tau(   1) = (   0.0000000   0.0000000   0.0000000  )
         2           Cu  tau(   2) = (   0.2500000   0.2500000   0.2500000  )

     number of k points=    35  gaussian smearing, width (Ry)=  0.0030
                       cart. coord. in units 2pi/alat
        k(    1) = (   0.0000000   0.0000000   0.0000000), wk =   0.0027435
        k(    2) = (  -0.1111111   0.1111111  -0.1111111), wk =   0.0219479
        k(    3) = (  -0.2222222   0.2222222  -0.2222222), wk =   0.0219479
        k(    4) = (  -0.3333333   0.3333333  -0.3333333), wk =   0.0219479
        k(    5) = (  -0.4444444   0.4444444  -0.4444444), wk =   0.0219479
        k(    6) = (   0.0000000   0.2222222   0.0000000), wk =   0.0164609
        k(    7) = (  -0.1111111   0.3333333  -0.1111111), wk =   0.0658436
        k(    8) = (  -0.2222222   0.4444444  -0.2222222), wk =   0.0658436
        k(    9) = (  -0.3333333   0.5555556  -0.3333333), wk =   0.0658436
        k(   10) = (   0.5555556  -0.3333333   0.5555556), wk =   0.0658436
        k(   11) = (   0.4444444  -0.2222222   0.4444444), wk =   0.0658436
        k(   12) = (   0.3333333  -0.1111111   0.3333333), wk =   0.0658436
        k(   13) = (   0.2222222  -0.0000000   0.2222222), wk =   0.0329218
        k(   14) = (   0.0000000   0.4444444   0.0000000), wk =   0.0164609
        k(   15) = (  -0.1111111   0.5555556  -0.1111111), wk =   0.0658436
        k(   16) = (  -0.2222222   0.6666667  -0.2222222), wk =   0.0658436
        k(   17) = (   0.6666667  -0.2222222   0.6666667), wk =   0.0658436
        k(   18) = (   0.5555556  -0.1111111   0.5555556), wk =   0.0658436
        k(   19) = (   0.4444444   0.0000000   0.4444444), wk =   0.0329218
        k(   20) = (   0.0000000   0.6666667   0.0000000), wk =   0.0164609
        k(   21) = (  -0.1111111   0.7777778  -0.1111111), wk =   0.0658436
        k(   22) = (   0.7777778  -0.1111111   0.7777778), wk =   0.0658436
        k(   23) = (   0.6666667  -0.0000000   0.6666667), wk =   0.0329218
        k(   24) = (   0.0000000   0.8888889   0.0000000), wk =   0.0164609
        k(   25) = (   0.8888889   0.0000000   0.8888889), wk =   0.0329218
        k(   26) = (  -0.2222222   0.4444444   0.0000000), wk =   0.0658436
        k(   27) = (  -0.3333333   0.5555556  -0.1111111), wk =   0.1316872
        k(   28) = (   0.5555556  -0.3333333   0.7777778), wk =   0.1316872
        k(   29) = (  -0.2222222   0.6666667   0.0000000), wk =   0.0658436
        k(   30) = (   0.6666667  -0.2222222   0.8888889), wk =   0.1316872
        k(   31) = (   0.5555556  -0.1111111   0.7777778), wk =   0.1316872
        k(   32) = (   0.4444444   0.0000000   0.6666667), wk =   0.0658436
        k(   33) = (   0.7777778  -0.1111111   1.0000000), wk =   0.0658436
        k(   34) = (   0.6666667  -0.0000000   0.8888889), wk =   0.0658436
        k(   35) = (   0.5555556  -0.1111111   1.0000000), wk =   0.0658436

     Dense  grid:    18763 G-vectors     FFT dimensions: (  40,  40,  40)

     Largest allocated arrays     est. size (Mb)     dimensions
        Kohn-Sham Wavefunctions         0.14 Mb     (    596,   15)
        NL pseudopotentials             0.33 Mb     (    596,   36)
        Each V/rho on FFT grid          0.24 Mb     (  16000)
        Each G-vector array             0.04 Mb     (   4691)
        G-vector shells                 0.00 Mb     (    229)
     Largest temporary arrays     est. size (Mb)     dimensions
        Auxiliary wavefunctions         0.55 Mb     (    596,   60)
        Each subspace H/S matrix        0.05 Mb     (  60,  60)
        Each <psi_i|beta_j> matrix      0.01 Mb     (     36,   15)
        Arrays for rho mixing           1.95 Mb     (  16000,   8)

     Check: negative/imaginary core charge=   -0.000024    0.000000

     Initial potential from superposition of free atoms

     starting charge   21.99954, renormalised to   22.00000
     Starting wfc are   18 randomized atomic wfcs
     Checking if some PAW data can be deallocated... 

     total cpu time spent up to now is        3.2 secs

     per-process dynamical memory:    12.9 Mb

     Self-consistent Calculation

     iteration #  1     ecut=    60.00 Ry     beta=0.70
     Davidson diagonalization with overlap
     ethr =  1.00E-02,  avg # of iterations =  3.5

     Threshold (ethr) on eigenvalues was too large:
     Diagonalizing with lowered threshold

     Davidson diagonalization with overlap
     ethr =  1.23E-05,  avg # of iterations =  5.6

     total cpu time spent up to now is       12.7 secs

     total energy              =    -426.03276552 Ry
     Harris-Foulkes estimate   =    -426.03249551 Ry
     estimated scf accuracy    <       0.00362615 Ry

     iteration #  2     ecut=    60.00 Ry     beta=0.70
     Davidson diagonalization with overlap
     ethr =  1.65E-05,  avg # of iterations =  1.0

     total cpu time spent up to now is       16.1 secs

     total energy              =    -426.03225498 Ry
     Harris-Foulkes estimate   =    -426.03311513 Ry
     estimated scf accuracy    <       0.00165107 Ry

     iteration #  3     ecut=    60.00 Ry     beta=0.70
     Davidson diagonalization with overlap
     ethr =  7.50E-06,  avg # of iterations =  2.3

     total cpu time spent up to now is       20.4 secs

     total energy              =    -426.03242162 Ry
     Harris-Foulkes estimate   =    -426.03362923 Ry
     estimated scf accuracy    <       0.00383327 Ry

     iteration #  4     ecut=    60.00 Ry     beta=0.70
     Davidson diagonalization with overlap
     ethr =  7.50E-06,  avg # of iterations =  2.1

     total cpu time spent up to now is       24.5 secs

     total energy              =    -426.03296534 Ry
     Harris-Foulkes estimate   =    -426.03296523 Ry
     estimated scf accuracy    <       0.00000113 Ry

     iteration #  5     ecut=    60.00 Ry     beta=0.70
     Davidson diagonalization with overlap
     ethr =  5.16E-09,  avg # of iterations =  4.1

     total cpu time spent up to now is       29.9 secs

     total energy              =    -426.03297257 Ry
     Harris-Foulkes estimate   =    -426.03297283 Ry
     estimated scf accuracy    <       0.00000084 Ry

     iteration #  6     ecut=    60.00 Ry     beta=0.70
     Davidson diagonalization with overlap
     ethr =  3.83E-09,  avg # of iterations =  1.2

     total cpu time spent up to now is       33.4 secs

     End of self-consistent calculation

          k = 0.0000 0.0000 0.0000 (  2277 PWs)   bands (ev):

    -0.0352   3.0348   3.0348   3.0348   3.0668   3.0668   3.9407   3.9407
     3.9407   4.4532   4.4532  14.3619  14.3619  14.3619  15.3920

          k =-0.1111 0.1111-0.1111 (  2331 PWs)   bands (ev):

     0.1369   2.9752   2.9752   3.0371   3.1512   3.1512   3.9119   3.9362
     3.9362   4.4540   4.4540  12.2260  13.7192  13.7192  15.6729

          k =-0.2222 0.2222-0.2222 (  2334 PWs)   bands (ev):

     0.6353   2.9486   2.9486   3.0489   3.2258   3.2258   3.8499   3.9473
     3.9473   4.4495   4.4495   9.6646  12.9338  12.9338  15.4212

          k =-0.3333 0.3333-0.3333 (  2334 PWs)   bands (ev):

     1.3722   2.9713   2.9713   3.0718   3.2271   3.2271   3.8576   4.0100
     4.0100   4.4281   4.4281   7.3994  12.3628  12.3628  15.3128

          k =-0.4444 0.4444-0.4444 (  2352 PWs)   bands (ev):

     2.0298   3.0245   3.0245   3.0761   3.1728   3.1728   4.0884   4.0884
     4.2254   4.3951   4.3951   5.5976  12.0637  12.0637  15.3405

          k = 0.0000 0.2222 0.0000 (  2337 PWs)   bands (ev):

     0.1949   2.9082   3.0431   3.0431   3.1129   3.2031   3.8177   3.9799
     3.9799   4.4159   4.4852  12.8160  12.8160  13.1923  14.5436

          k =-0.1111 0.3333-0.1111 (  2317 PWs)   bands (ev):

     0.5869   2.8628   3.0285   3.0491   3.1868   3.2820   3.7155   4.0047
     4.0237   4.3813   4.5039  10.5482  12.0318  12.6894  14.8353

          k =-0.2222 0.4444-0.2222 (  2344 PWs)   bands (ev):

     1.2556   2.8655   3.0354   3.0567   3.2182   3.3155   3.6870   4.0457
     4.0849   4.3536   4.5053   8.2061  11.5408  11.9059  14.8072

          k =-0.3333 0.5556-0.3333 (  2345 PWs)   bands (ev):

     1.9819   2.9038   3.0451   3.0637   3.2129   3.2676   3.8257   4.1081
     4.2551   4.3647   4.4835   6.2233  11.2171  11.4104  14.6780

          k = 0.5556-0.3333 0.5556 (  2344 PWs)   bands (ev):

     2.2337   2.9479   2.9977   3.0904   3.1853   3.2552   3.9904   4.0337
     4.4051   4.4283   4.6971   5.2485  10.7763  11.6624  14.8574

          k = 0.4444-0.2222 0.4444 (  2340 PWs)   bands (ev):

     1.7553   2.9303   2.9971   3.0833   3.1679   3.3166   3.8911   3.9258
     4.2132   4.3548   4.4812   6.8460  10.6662  12.2621  15.3625

          k = 0.3333-0.1111 0.3333 (  2339 PWs)   bands (ev):

     1.0058   2.8937   3.0062   3.0445   3.1962   3.3206   3.7987   3.8666
     4.1129   4.3692   4.4995   8.9684  10.9082  13.1083  16.1248

          k = 0.2222-0.0000 0.2222 (  2319 PWs)   bands (ev):

     0.4190   2.9087   2.9943   3.0450   3.1696   3.2459   3.8412   3.8865
     4.0239   4.4121   4.4865  11.2765  11.5977  13.9211  15.8871

          k = 0.0000 0.4444 0.0000 (  2321 PWs)   bands (ev):

     0.8688   2.7958   3.0583   3.0583   3.2444   3.3480   3.5379   4.1009
     4.1009   4.3070   4.5379  11.1234  11.1811  11.1811  13.5861

          k =-0.1111 0.5556-0.1111 (  2337 PWs)   bands (ev):

     1.4416   2.7776   3.0522   3.0609   3.3171   3.3866   3.4490   4.1570
     4.1793   4.2692   4.5673   9.0921  10.5699  10.6201  13.7491

          k =-0.2222 0.6667-0.2222 (  2339 PWs)   bands (ev):

     2.1422   2.7998   3.0226   3.0498   3.3315   3.3600   3.5670   4.0830
     4.3492   4.3587   4.6117   7.1006   9.6619  10.4495  13.7269

          k = 0.6667-0.2222 0.6667 (  2335 PWs)   bands (ev):

     2.5270   2.8351   3.0042   3.0327   3.2511   3.4083   3.7907   3.9576
     4.4540   4.4916   5.1329   5.4966   8.9698  10.7087  13.8899

          k = 0.5556-0.1111 0.5556 (  2338 PWs)   bands (ev):

     2.2785   2.9149   2.9392   3.0977   3.1496   3.4553   3.8359   3.9232
     4.4139   4.4900   4.5090   6.5983   8.6277  11.3611  14.3474

          k = 0.4444 0.0000 0.4444 (  2343 PWs)   bands (ev):

     1.6308   2.8931   2.9861   3.0636   3.1694   3.4240   3.8052   3.8404
     4.2859   4.2944   4.5219   8.3572   8.8608  12.2823  15.1119

          k = 0.0000 0.6667 0.0000 (  2357 PWs)   bands (ev):

     1.9067   2.7428   3.0666   3.0666   3.2219   3.4417   3.4574   4.1355
     4.2847   4.2847   4.6427   8.7639   9.9474   9.9474  13.0204

          k =-0.1111 0.7778-0.1111 (  2342 PWs)   bands (ev):

     2.5082   2.7601   2.9929   3.0609   3.2145   3.4793   3.5328   4.0169
     4.3895   4.4031   4.7946   7.5119   8.8796   9.6676  13.1528

          k = 0.7778-0.1111 0.7778 (  2329 PWs)   bands (ev):

     2.7681   2.8687   2.9483   3.0318   3.2714   3.5907   3.5970   3.8727
     4.4707   4.5359   5.2867   6.3195   7.6819   9.8475  13.2772

          k = 0.6667-0.0000 0.6667 (  2315 PWs)   bands (ev):

     2.6710   2.8879   2.9829   3.0172   3.2033   3.5953   3.7780   3.7975
     4.5080   4.5420   5.1024   6.4648   7.2056  10.4550  13.6607

          k = 0.0000 0.8889 0.0000 (  2341 PWs)   bands (ev):

     2.7842   2.8940   3.0393   3.0678   3.0678   3.4426   3.6765   3.9176
     4.4402   4.4402   5.1175   6.5800   9.2585   9.2585  12.8381

          k = 0.8889 0.0000 0.8889 (  2322 PWs)   bands (ev):

     2.8156   2.8691   3.0413   3.0581   3.2961   3.4017   3.7666   3.7938
     4.4713   4.4988   5.7596   5.7689   8.3891   9.3230  12.9694

          k =-0.2222 0.4444 0.0000 (  2324 PWs)   bands (ev):

     1.0699   2.8308   3.0387   3.0512   3.2250   3.3609   3.6106   4.0058
     4.1528   4.3205   4.5287   9.7075  10.1629  12.2189  15.0368

          k =-0.3333 0.5556-0.1111 (  2337 PWs)   bands (ev):

     1.7683   2.8452   2.9968   3.0824   3.2320   3.3972   3.6317   4.0381
     4.2570   4.3203   4.5398   7.7017   9.6437  11.3519  15.1325

          k = 0.5556-0.3333 0.7778 (  2328 PWs)   bands (ev):

     2.3542   2.8718   2.9545   3.0947   3.2477   3.3531   3.8031   4.0043
     4.4162   4.4749   4.7028   5.8943   9.5713  10.7158  15.0411

          k =-0.2222 0.6667 0.0000 (  2348 PWs)   bands (ev):

     2.0419   2.7744   2.9963   3.0795   3.3659   3.3805   3.4675   4.0901
     4.3079   4.3352   4.6286   8.2619   9.0992  10.0159  14.3337

          k = 0.6667-0.2222 0.8889 (  2338 PWs)   bands (ev):

     2.5981   2.7993   2.9276   3.0795   3.3580   3.4491   3.5811   3.9605
     4.4452   4.4892   4.8601   6.7776   8.4218   9.4759  14.5145

          k = 0.5556-0.1111 0.7778 (  2336 PWs)   bands (ev):

     2.7028   2.8454   2.9114   3.0758   3.2924   3.5104   3.7377   3.8505
     4.5005   4.5333   5.2544   5.9839   7.9282   9.6972  14.8016

          k = 0.4444 0.0000 0.6667 (  2330 PWs)   bands (ev):

     2.3647   2.8656   2.9171   3.0989   3.2383   3.5140   3.6388   3.9725
     4.4370   4.4456   4.6134   7.2809   7.9382  10.4181  15.3319

          k = 0.7778-0.1111 1.0000 (  2346 PWs)   bands (ev):

     2.7921   2.8896   2.9042   3.0717   3.2985   3.4544   3.6389   3.8855
     4.4804   4.4810   5.1835   6.6125   8.5505   8.7422  14.0405

          k = 0.6667-0.0000 0.8889 (  2340 PWs)   bands (ev):

     2.7896   2.8716   2.9820   3.0471   3.3430   3.5698   3.6865   3.7578
     4.5111   4.5554   5.7867   6.0172   7.4386   8.9555  14.3173

          k = 0.5556-0.1111 1.0000 (  2327 PWs)   bands (ev):

     2.8118   2.8227   2.9299   3.0665   3.4390   3.5375   3.6121   3.7974
     4.5335   4.5467   5.4624   6.4482   7.6046   8.4268  16.1827

     the Fermi energy is     5.5025 ev

!    total energy              =    -426.03297269 Ry
     Harris-Foulkes estimate   =    -426.03297269 Ry
     estimated scf accuracy    <          2.2E-09 Ry

     total all-electron energy =     -6619.792509 Ry

     The total energy is the sum of the following terms:

     one-electron contribution =    -124.82077203 Ry
     hartree contribution      =      61.00406976 Ry
     xc contribution           =     -73.43245158 Ry
     ewald contribution        =    -122.98161575 Ry
     one-center paw contrib.   =    -165.80212728 Ry
     smearing contrib. (-TS)   =      -0.00007582 Ry

     convergence has been achieved in   6 iterations

     Writing output data file Cu.save

     init_run     :      2.27s CPU      2.39s WALL (       1 calls)
     electrons    :     28.95s CPU     30.18s WALL (       1 calls)

     Called by init_run:
     wfcinit      :      1.24s CPU      1.29s WALL (       1 calls)
     potinit      :      0.35s CPU      0.38s WALL (       1 calls)

     Called by electrons:
     c_bands      :     21.72s CPU     22.63s WALL (       7 calls)
     sum_band     :      4.55s CPU      4.74s WALL (       7 calls)
     v_of_rho     :      0.20s CPU      0.21s WALL (       7 calls)
     newd         :      0.37s CPU      0.38s WALL (       7 calls)
     mix_rho      :      0.20s CPU      0.21s WALL (       7 calls)

     Called by c_bands:
     init_us_2    :      0.43s CPU      0.43s WALL (     525 calls)
     cegterg      :     20.64s CPU     21.51s WALL (     245 calls)

     Called by *egterg:
     h_psi        :     18.36s CPU     19.11s WALL (     973 calls)
     s_psi        :      0.47s CPU      0.46s WALL (     973 calls)
     g_psi        :      0.12s CPU      0.13s WALL (     693 calls)
     cdiaghg      :      1.04s CPU      1.08s WALL (     903 calls)

     Called by h_psi:
     add_vuspsi   :      0.46s CPU      0.48s WALL (     973 calls)

     General routines
     calbec       :      0.76s CPU      0.76s WALL (    1218 calls)
     fft          :      0.10s CPU      0.12s WALL (      93 calls)
     fftw         :     19.40s CPU     19.69s WALL (   25151 calls)
     davcio       :      0.07s CPU      0.08s WALL (     770 calls)

     Parallel routines
     fft_scatter  :      4.04s CPU      4.25s WALL (   25244 calls)

     PAW routines
     PAW_pot      :      2.25s CPU      2.37s WALL (       7 calls)
     PAW_ddot     :      0.19s CPU      0.19s WALL (      37 calls)
     PAW_symme    :      0.01s CPU      0.01s WALL (      14 calls)

     PWSCF        :    32.25s CPU        33.64s WALL


   This run was terminated on:  19:11:44  11Jul2015            

=------------------------------------------------------------------------------=
   JOB DONE.
=------------------------------------------------------------------------------=
