
     Program PWSCF v.5.0.2 (svn rev. 9656) starts on 26Jul2015 at  2:50:50 

     This program is part of the open-source Quantum ESPRESSO suite
     for quantum simulation of materials; please cite
         "P. Giannozzi et al., J. Phys.:Condens. Matter 21 395502 (2009);
          URL http://www.quantum-espresso.org", 
     in publications or presentations arising from this work. More details at
     http://www.quantum-espresso.org/quote.php

     Parallel version (MPI), running on     4 processors
     R & G space division:  proc/nbgrp/npool/nimage =       4

     Current dimensions of program PWSCF are:
     Max number of different atomic species (ntypx) = 10
     Max number of k-points (npk) =  40000
     Max angular momentum in pseudopotentials (lmaxx) =  3
     Waiting for input...
     Reading input from standard input
               file C.pbe-rrkjus.UPF: wavefunction(s)  2S 2P renormalized

     Subspace diagonalization in iterative solution of the eigenvalue problem:
     a serial algorithm will be used


     Parallelization info
     --------------------
     sticks:   dense  smooth     PW     G-vecs:    dense   smooth      PW
     Min         211     109     34                58589    22883    3994
     Max         212     110     35                58614    22916    4019
     Sum         847     439    139               234415    91585   16031



     bravais-lattice index     =            0
     lattice parameter (alat)  =       4.6500  a.u.
     unit-cell volume          =    1044.8904 (a.u.)^3
     number of atoms/cell      =            2
     number of atomic types    =            1
     number of electrons       =         8.00
     number of Kohn-Sham states=            8
     kinetic-energy cutoff     =      75.0000  Ry
     charge density cutoff     =     560.0000  Ry
     convergence threshold     =      1.0E-08
     mixing beta               =       0.7000
     number of iterations used =            8  plain     mixing
     Exchange-correlation      =  SLA  PW   PBE  PBE ( 1 4 3 4 0)
     EXX-fraction              =        0.00

     celldm(1)=   4.650000  celldm(2)=   0.000000  celldm(3)=   0.000000
     celldm(4)=   0.000000  celldm(5)=   0.000000  celldm(6)=   0.000000

     crystal axes: (cart. coord. in units of alat)
               a(1) = (   1.000000   0.000000   0.000000 )  
               a(2) = (   0.500000   0.866025   0.000000 )  
               a(3) = (   0.000000   0.000000  12.000000 )  

     reciprocal axes: (cart. coord. in units 2 pi/alat)
               b(1) = (  1.000000 -0.577350  0.000000 )  
               b(2) = (  0.000000  1.154701  0.000000 )  
               b(3) = (  0.000000  0.000000  0.083333 )  


     PseudoPot. # 1 for C  read from file:
     ./C.pbe-rrkjus.UPF
     MD5 check sum: 00fb224312de0c5b6853bd333518df6f
     Pseudo is Ultrasoft, Zval =  4.0
     Generated by new atomic code, or converted to UPF format
     Using radial grid of  627 points,  4 beta functions with: 
                l(1) =   0
                l(2) =   0
                l(3) =   1
                l(4) =   1
     Q(r) pseudized with 0 coefficients 


     atomic species   valence    mass     pseudopotential
        C              4.00    12.00000     C ( 1.00)

     24 Sym. Ops., with inversion, found (12 have fractional translation)



   Cartesian axes

     site n.     atom                  positions (alat units)
         1           C   tau(   1) = (   0.0000000   0.0000000   0.0000000  )
         2           C   tau(   2) = (   1.0000000   0.5773503   0.0000000  )

     number of k points=    30  gaussian smearing, width (Ry)=  0.0010
                       cart. coord. in units 2pi/alat
        k(    1) = (   0.0000000   0.0000000   0.0000000), wk =   0.0078125
        k(    2) = (   0.0000000   0.0721688   0.0000000), wk =   0.0468750
        k(    3) = (   0.0000000   0.1443376   0.0000000), wk =   0.0468750
        k(    4) = (   0.0000000   0.2165064   0.0000000), wk =   0.0468750
        k(    5) = (   0.0000000   0.2886751   0.0000000), wk =   0.0468750
        k(    6) = (   0.0000000   0.3608439   0.0000000), wk =   0.0468750
        k(    7) = (   0.0000000   0.4330127   0.0000000), wk =   0.0468750
        k(    8) = (   0.0000000   0.5051815   0.0000000), wk =   0.0468750
        k(    9) = (   0.0000000  -0.5773503   0.0000000), wk =   0.0234375
        k(   10) = (   0.0625000   0.1082532   0.0000000), wk =   0.0468750
        k(   11) = (   0.0625000   0.1804220   0.0000000), wk =   0.0937500
        k(   12) = (   0.0625000   0.2525907   0.0000000), wk =   0.0937500
        k(   13) = (   0.0625000   0.3247595   0.0000000), wk =   0.0937500
        k(   14) = (   0.0625000   0.3969283   0.0000000), wk =   0.0937500
        k(   15) = (   0.0625000   0.4690971   0.0000000), wk =   0.0937500
        k(   16) = (   0.0625000  -0.6134347   0.0000000), wk =   0.0937500
        k(   17) = (   0.1250000   0.2165064   0.0000000), wk =   0.0468750
        k(   18) = (   0.1250000   0.2886751   0.0000000), wk =   0.0937500
        k(   19) = (   0.1250000   0.3608439   0.0000000), wk =   0.0937500
        k(   20) = (   0.1250000   0.4330127   0.0000000), wk =   0.0937500
        k(   21) = (   0.1250000  -0.6495191   0.0000000), wk =   0.0937500
        k(   22) = (   0.1250000  -0.5773503   0.0000000), wk =   0.0468750
        k(   23) = (   0.1875000   0.3247595   0.0000000), wk =   0.0468750
        k(   24) = (   0.1875000   0.3969283   0.0000000), wk =   0.0937500
        k(   25) = (   0.1875000  -0.6856034   0.0000000), wk =   0.0937500
        k(   26) = (   0.1875000  -0.6134347   0.0000000), wk =   0.0937500
        k(   27) = (   0.2500000  -0.7216878   0.0000000), wk =   0.0468750
        k(   28) = (   0.2500000  -0.6495191   0.0000000), wk =   0.0937500
        k(   29) = (   0.2500000  -0.5773503   0.0000000), wk =   0.0468750
        k(   30) = (   0.3125000  -0.6134347   0.0000000), wk =   0.0468750

     Dense  grid:   234415 G-vectors     FFT dimensions: (  36,  36, 432)

     Smooth grid:    91585 G-vectors     FFT dimensions: (  25,  25, 320)

     Largest allocated arrays     est. size (Mb)     dimensions
        Kohn-Sham Wavefunctions         0.37 Mb     (   3044,    8)
        NL pseudopotentials             0.74 Mb     (   3044,   16)
        Each V/rho on FFT grid          2.14 Mb     ( 139968)
        Each G-vector array             0.45 Mb     (  58604)
        G-vector shells                 0.13 Mb     (  17252)
     Largest temporary arrays     est. size (Mb)     dimensions
        Auxiliary wavefunctions         1.49 Mb     (   3044,   32)
        Each subspace H/S matrix        0.02 Mb     (  32,  32)
        Each <psi_i|beta_j> matrix      0.00 Mb     (     16,    8)
        Arrays for rho mixing          17.09 Mb     ( 139968,   8)

     Initial potential from superposition of free atoms

     starting charge    7.99989, renormalised to    8.00000

     negative rho (up, down):  0.254E-04 0.000E+00
     Starting wfc are    8 randomized atomic wfcs

     total cpu time spent up to now is        6.8 secs

     per-process dynamical memory:    30.6 Mb

     Self-consistent Calculation

     iteration #  1     ecut=    75.00 Ry     beta=0.70
     Davidson diagonalization with overlap
     ethr =  1.00E-02,  avg # of iterations =  4.7

     negative rho (up, down):  0.176E-04 0.000E+00

     total cpu time spent up to now is       23.4 secs

     total energy              =     -22.75973581 Ry
     Harris-Foulkes estimate   =     -22.88420242 Ry
     estimated scf accuracy    <       0.20656995 Ry

     iteration #  2     ecut=    75.00 Ry     beta=0.70
     Davidson diagonalization with overlap
     ethr =  2.58E-03,  avg # of iterations =  4.8

     negative rho (up, down):  0.170E-04 0.000E+00

     total cpu time spent up to now is       36.8 secs

     total energy              =     -22.79087521 Ry
     Harris-Foulkes estimate   =     -22.79101309 Ry
     estimated scf accuracy    <       0.00250741 Ry

     iteration #  3     ecut=    75.00 Ry     beta=0.70
     Davidson diagonalization with overlap
     c_bands:  1 eigenvalues not converged
     ethr =  3.13E-05,  avg # of iterations = 10.8

     negative rho (up, down):  0.186E-04 0.000E+00

     total cpu time spent up to now is       57.4 secs

     total energy              =     -22.79122642 Ry
     Harris-Foulkes estimate   =     -22.79119598 Ry
     estimated scf accuracy    <       0.00013829 Ry

     iteration #  4     ecut=    75.00 Ry     beta=0.70
     Davidson diagonalization with overlap
     ethr =  1.73E-06,  avg # of iterations =  5.2

     negative rho (up, down):  0.187E-04 0.000E+00

     total cpu time spent up to now is       71.1 secs

     total energy              =     -22.79123210 Ry
     Harris-Foulkes estimate   =     -22.79123127 Ry
     estimated scf accuracy    <       0.00000092 Ry

     iteration #  5     ecut=    75.00 Ry     beta=0.70
     Davidson diagonalization with overlap
     ethr =  1.14E-08,  avg # of iterations =  2.5

     negative rho (up, down):  0.187E-04 0.000E+00

     total cpu time spent up to now is       83.9 secs

     total energy              =     -22.79123245 Ry
     Harris-Foulkes estimate   =     -22.79123244 Ry
     estimated scf accuracy    <       0.00000002 Ry

     iteration #  6     ecut=    75.00 Ry     beta=0.70
     Davidson diagonalization with overlap
     ethr =  3.02E-10,  avg # of iterations =  2.0

     negative rho (up, down):  0.186E-04 0.000E+00

     total cpu time spent up to now is       96.1 secs

     End of self-consistent calculation

          k = 0.0000 0.0000 0.0000 ( 11445 PWs)   bands (ev):

   -22.4917 -10.6020  -6.0250  -6.0250   0.3035   1.0416   1.2090   1.5613

          k = 0.0000 0.0722 0.0000 ( 11495 PWs)   bands (ev):

   -22.3993 -10.4913  -6.3974  -6.2218   0.4293   1.1695   1.3383   1.6900

          k = 0.0000 0.1443 0.0000 ( 11539 PWs)   bands (ev):

   -22.1225 -10.1606  -7.4007  -6.7296   0.8066   1.5529   1.7262   2.0757

          k = 0.0000 0.2165 0.0000 ( 11549 PWs)   bands (ev):

   -21.6632  -9.6154  -8.8028  -7.3827   1.4351   2.1904   2.3727   2.7180

          k = 0.0000 0.2887 0.0000 ( 11495 PWs)   bands (ev):

   -21.0244 -10.4001  -8.8667  -8.0404   2.3134   3.0721   3.2776   3.6098

          k = 0.0000 0.3608 0.0000 ( 11497 PWs)   bands (ev):

   -20.2116 -12.0547  -8.6130  -7.9370   2.5522   3.4364   4.2503   4.4405

          k = 0.0000 0.4330 0.0000 ( 11447 PWs)   bands (ev):

   -19.2348 -13.6767  -9.0491  -6.8787   0.8530   4.6104   4.8968   5.6365

          k = 0.0000 0.5052 0.0000 ( 11429 PWs)   bands (ev):

   -18.1228 -15.1914  -9.3201  -5.8437  -0.5992   4.5449   6.4381   7.2682

          k = 0.0000-0.5774 0.0000 ( 11462 PWs)   bands (ev):

   -17.2299 -16.2211  -9.4119  -5.3193  -1.2673   4.5013   8.1869   8.3398

          k = 0.0625 0.1083 0.0000 ( 11497 PWs)   bands (ev):

   -22.2147 -10.2706  -7.0443  -6.6154   0.6809   1.4252   1.5969   1.9472

          k = 0.0625 0.1804 0.0000 ( 11542 PWs)   bands (ev):

   -21.8466  -9.8324  -8.1726  -7.2717   1.1841   1.9358   2.1140   2.4613

          k = 0.0625 0.2526 0.0000 ( 11543 PWs)   bands (ev):

   -21.2976  -9.6199  -9.1847  -7.9809   1.9380   2.6987   2.8898   3.2310

          k = 0.0625 0.3248 0.0000 ( 11504 PWs)   bands (ev):

   -20.5717 -11.2165  -8.6259  -8.3430   2.9402   3.3118   3.7644   3.9239

          k = 0.0625 0.3969 0.0000 ( 11458 PWs)   bands (ev):

   -19.6765 -12.8399  -9.1455  -7.3403   1.6414   4.1823   4.9990   5.1871

          k = 0.0625 0.4691 0.0000 ( 11448 PWs)   bands (ev):

   -18.6275 -14.4050  -9.5064  -6.2614   0.0461   4.9991   5.7093   6.5068

          k = 0.0625-0.6134 0.0000 ( 11442 PWs)   bands (ev):

   -17.5016 -15.7975  -9.6907  -5.3834  -1.1049   4.9224   7.4107   8.2315

          k = 0.1250 0.2165 0.0000 ( 11531 PWs)   bands (ev):

   -21.3889  -9.2913  -9.1969  -8.1350   1.8130   2.5728   2.7605   3.1035

          k = 0.1250 0.2887 0.0000 ( 11468 PWs)   bands (ev):

   -20.7528 -10.4936  -8.9831  -8.5482   2.6918   3.4548   3.6656   3.8502

          k = 0.1250 0.3608 0.0000 ( 11451 PWs)   bands (ev):

   -19.9441 -11.9823  -9.6527  -7.6246   2.2676   3.8170   4.6044   4.8290

          k = 0.1250 0.4330 0.0000 ( 11453 PWs)   bands (ev):

   -18.9739 -13.5174 -10.1312  -6.5694   0.6818   5.1792   5.9802   6.2111

          k = 0.1250-0.6495 0.0000 ( 11424 PWs)   bands (ev):

   -17.8724 -14.9842 -10.4196  -5.5246  -0.7094   6.0637   6.8061   7.5592

          k = 0.1250-0.5774 0.0000 ( 11404 PWs)   bands (ev):

   -16.9930 -15.9893 -10.5161  -4.9813  -1.3730   6.0266   8.5074   8.6849

          k = 0.1875 0.3248 0.0000 ( 11487 PWs)   bands (ev):

   -20.0338 -11.4752 -10.0637  -7.7206   2.5190   3.6935   4.4674   4.6998

          k = 0.1875 0.3969 0.0000 ( 11434 PWs)   bands (ev):

   -19.1493 -12.6977 -10.8719  -6.7312   1.0992   4.9376   5.7049   5.9924

          k = 0.1875-0.6856 0.0000 ( 11414 PWs)   bands (ev):

   -18.1175 -14.0720 -11.3499  -5.6509  -0.2995   6.4110   7.1148   7.5420

          k = 0.1875-0.6134 0.0000 ( 11367 PWs)   bands (ev):

   -17.0179 -15.3737 -11.5732  -4.7279  -1.3934   7.5889   8.1148   8.3281

          k = 0.2500-0.7217 0.0000 ( 11416 PWs)   bands (ev):

   -18.2014 -13.4911 -11.9501  -5.6997  -0.1226   6.2906   6.9520   7.4142

          k = 0.2500-0.6495 0.0000 ( 11414 PWs)   bands (ev):

   -17.1352 -14.5415 -12.5585  -4.6258  -1.3100   7.8434   7.8559   9.0923

          k = 0.2500-0.5774 0.0000 ( 11382 PWs)   bands (ev):

   -16.2843 -15.4225 -12.7318  -3.9762  -1.9978   7.9916   9.1943   9.3684

          k = 0.3125-0.6134 0.0000 ( 11422 PWs)   bands (ev):

   -16.1063 -15.1107 -13.3890  -3.5726  -2.3344   7.7464   9.3372  10.0898

     the Fermi energy is    -3.1413 ev

!    total energy              =     -22.79123245 Ry
     Harris-Foulkes estimate   =     -22.79123245 Ry
     estimated scf accuracy    <          5.7E-10 Ry

     The total energy is the sum of the following terms:

     one-electron contribution =    -353.76084836 Ry
     hartree contribution      =     177.88997313 Ry
     xc contribution           =      -7.02459866 Ry
     ewald contribution        =     160.10424143 Ry
     smearing contrib. (-TS)   =      -0.00000000 Ry

     convergence has been achieved in   6 iterations

     Writing output data file graphene.save

     init_run     :      6.21s CPU      6.77s WALL (       1 calls)
     electrons    :     84.36s CPU     89.24s WALL (       1 calls)

     Called by init_run:
     wfcinit      :      3.40s CPU      3.77s WALL (       1 calls)
     potinit      :      1.24s CPU      1.30s WALL (       1 calls)

     Called by electrons:
     c_bands      :     63.23s CPU     66.74s WALL (       6 calls)
     sum_band     :     14.85s CPU     15.74s WALL (       6 calls)
     v_of_rho     :      2.75s CPU      2.95s WALL (       7 calls)
     newd         :      3.29s CPU      3.53s WALL (       7 calls)
     mix_rho      :      0.43s CPU      0.46s WALL (       6 calls)

     Called by c_bands:
     init_us_2    :      0.95s CPU      1.15s WALL (     390 calls)
     cegterg      :     61.82s CPU     65.03s WALL (     180 calls)

     Called by *egterg:
     h_psi        :     57.15s CPU     60.43s WALL (    1110 calls)
     s_psi        :      1.02s CPU      1.02s WALL (    1110 calls)
     g_psi        :      0.30s CPU      0.32s WALL (     900 calls)
     cdiaghg      :      0.50s CPU      0.50s WALL (    1080 calls)

     Called by h_psi:
     add_vuspsi   :      1.01s CPU      1.03s WALL (    1110 calls)

     General routines
     calbec       :      1.71s CPU      1.80s WALL (    1290 calls)
     fft          :      2.69s CPU      2.93s WALL (     107 calls)
     ffts         :      0.08s CPU      0.09s WALL (      13 calls)
     fftw         :     40.62s CPU     43.90s WALL (   10964 calls)
     interpolate  :      0.53s CPU      0.55s WALL (      13 calls)
     davcio       :      0.33s CPU      0.44s WALL (     570 calls)

     Parallel routines
     fft_scatter  :     26.13s CPU     29.16s WALL (   11084 calls)

     PWSCF        :  1m30.93s CPU     1m36.41s WALL


   This run was terminated on:   2:52:27  26Jul2015            

=------------------------------------------------------------------------------=
   JOB DONE.
=------------------------------------------------------------------------------=
