
     Program PWSCF v.5.0.2 (svn rev. 9656) starts on 11Jul2015 at 20:20:23 

     This program is part of the open-source Quantum ESPRESSO suite
     for quantum simulation of materials; please cite
         "P. Giannozzi et al., J. Phys.:Condens. Matter 21 395502 (2009);
          URL http://www.quantum-espresso.org", 
     in publications or presentations arising from this work. More details at
     http://www.quantum-espresso.org/quote.php

     Parallel version (MPI), running on     4 processors
     R & G space division:  proc/nbgrp/npool/nimage =       4

     Current dimensions of program PWSCF are:
     Max number of different atomic species (ntypx) = 10
     Max number of k-points (npk) =  40000
     Max angular momentum in pseudopotentials (lmaxx) =  3
     Waiting for input...
     Reading input from standard input
               file Cu.pbe.UPF: wavefunction(s)  4S 3D renormalized

     Subspace diagonalization in iterative solution of the eigenvalue problem:
     a serial algorithm will be used


     Parallelization info
     --------------------
     sticks:   dense  smooth     PW     G-vecs:    dense   smooth      PW
     Min         180     180     55                 3156     3156     533
     Max         181     181     57                 3157     3157     534
     Sum         721     721    223                12627    12627    2133



     bravais-lattice index     =            2
     lattice parameter (alat)  =      10.2000  a.u.
     unit-cell volume          =     265.3020 (a.u.)^3
     number of atoms/cell      =            2
     number of atomic types    =            1
     number of electrons       =        22.00
     number of Kohn-Sham states=           15
     kinetic-energy cutoff     =      50.0000  Ry
     charge density cutoff     =     200.0000  Ry
     convergence threshold     =      1.0E-07
     mixing beta               =       0.7000
     number of iterations used =            8  plain     mixing
     Exchange-correlation      =  SLA  PW   PBX  PBC ( 1 4 3 4 0)
     EXX-fraction              =        0.00

     celldm(1)=  10.200000  celldm(2)=   0.000000  celldm(3)=   0.000000
     celldm(4)=   0.000000  celldm(5)=   0.000000  celldm(6)=   0.000000

     crystal axes: (cart. coord. in units of alat)
               a(1) = (  -0.500000   0.000000   0.500000 )  
               a(2) = (   0.000000   0.500000   0.500000 )  
               a(3) = (  -0.500000   0.500000   0.000000 )  

     reciprocal axes: (cart. coord. in units 2 pi/alat)
               b(1) = ( -1.000000 -1.000000  1.000000 )  
               b(2) = (  1.000000  1.000000  1.000000 )  
               b(3) = ( -1.000000  1.000000 -1.000000 )  


     PseudoPot. # 1 for Cu read from file:
     ./Cu.pbe.UPF
     MD5 check sum: 0c51aa2b3b25e0d1c3270f17c0a46a12
     Pseudo is Projector augmented-wave + core cor, Zval = 11.0
     Generated using "atomic" code by A. Dal Corso  v.5.0.99 svn rev. 10869
     Shape of augmentation charge: BESSEL
     Using radial grid of 1199 points,  6 beta functions with: 
                l(1) =   0
                l(2) =   0
                l(3) =   1
                l(4) =   1
                l(5) =   2
                l(6) =   2
     Q(r) pseudized with 0 coefficients 


     atomic species   valence    mass     pseudopotential
        Cu            11.00    63.54600     Cu( 1.00)

     48 Sym. Ops., with inversion, found (24 have fractional translation)



   Cartesian axes

     site n.     atom                  positions (alat units)
         1           Cu  tau(   1) = (   0.0000000   0.0000000   0.0000000  )
         2           Cu  tau(   2) = (   0.2500000   0.2500000   0.2500000  )

     number of k points=    84  gaussian smearing, width (Ry)=  0.0030
                       cart. coord. in units 2pi/alat
        k(    1) = (   0.0000000   0.0000000   0.0000000), wk =   0.0009103
        k(    2) = (  -0.0769231   0.0769231  -0.0769231), wk =   0.0072827
        k(    3) = (  -0.1538462   0.1538462  -0.1538462), wk =   0.0072827
        k(    4) = (  -0.2307692   0.2307692  -0.2307692), wk =   0.0072827
        k(    5) = (  -0.3076923   0.3076923  -0.3076923), wk =   0.0072827
        k(    6) = (  -0.3846154   0.3846154  -0.3846154), wk =   0.0072827
        k(    7) = (  -0.4615385   0.4615385  -0.4615385), wk =   0.0072827
        k(    8) = (   0.0000000   0.1538462   0.0000000), wk =   0.0054620
        k(    9) = (  -0.0769231   0.2307692  -0.0769231), wk =   0.0218480
        k(   10) = (  -0.1538462   0.3076923  -0.1538462), wk =   0.0218480
        k(   11) = (  -0.2307692   0.3846154  -0.2307692), wk =   0.0218480
        k(   12) = (  -0.3076923   0.4615385  -0.3076923), wk =   0.0218480
        k(   13) = (  -0.3846154   0.5384615  -0.3846154), wk =   0.0218480
        k(   14) = (   0.5384615  -0.3846154   0.5384615), wk =   0.0218480
        k(   15) = (   0.4615385  -0.3076923   0.4615385), wk =   0.0218480
        k(   16) = (   0.3846154  -0.2307692   0.3846154), wk =   0.0218480
        k(   17) = (   0.3076923  -0.1538462   0.3076923), wk =   0.0218480
        k(   18) = (   0.2307692  -0.0769231   0.2307692), wk =   0.0218480
        k(   19) = (   0.1538462   0.0000000   0.1538462), wk =   0.0109240
        k(   20) = (   0.0000000   0.3076923   0.0000000), wk =   0.0054620
        k(   21) = (  -0.0769231   0.3846154  -0.0769231), wk =   0.0218480
        k(   22) = (  -0.1538462   0.4615385  -0.1538462), wk =   0.0218480
        k(   23) = (  -0.2307692   0.5384615  -0.2307692), wk =   0.0218480
        k(   24) = (  -0.3076923   0.6153846  -0.3076923), wk =   0.0218480
        k(   25) = (   0.6153846  -0.3076923   0.6153846), wk =   0.0218480
        k(   26) = (   0.5384615  -0.2307692   0.5384615), wk =   0.0218480
        k(   27) = (   0.4615385  -0.1538462   0.4615385), wk =   0.0218480
        k(   28) = (   0.3846154  -0.0769231   0.3846154), wk =   0.0218480
        k(   29) = (   0.3076923   0.0000000   0.3076923), wk =   0.0109240
        k(   30) = (   0.0000000   0.4615385   0.0000000), wk =   0.0054620
        k(   31) = (  -0.0769231   0.5384615  -0.0769231), wk =   0.0218480
        k(   32) = (  -0.1538462   0.6153846  -0.1538462), wk =   0.0218480
        k(   33) = (  -0.2307692   0.6923077  -0.2307692), wk =   0.0218480
        k(   34) = (   0.6923077  -0.2307692   0.6923077), wk =   0.0218480
        k(   35) = (   0.6153846  -0.1538462   0.6153846), wk =   0.0218480
        k(   36) = (   0.5384615  -0.0769231   0.5384615), wk =   0.0218480
        k(   37) = (   0.4615385   0.0000000   0.4615385), wk =   0.0109240
        k(   38) = (   0.0000000   0.6153846   0.0000000), wk =   0.0054620
        k(   39) = (  -0.0769231   0.6923077  -0.0769231), wk =   0.0218480
        k(   40) = (  -0.1538462   0.7692308  -0.1538462), wk =   0.0218480
        k(   41) = (   0.7692308  -0.1538462   0.7692308), wk =   0.0218480
        k(   42) = (   0.6923077  -0.0769231   0.6923077), wk =   0.0218480
        k(   43) = (   0.6153846   0.0000000   0.6153846), wk =   0.0109240
        k(   44) = (   0.0000000   0.7692308   0.0000000), wk =   0.0054620
        k(   45) = (  -0.0769231   0.8461538  -0.0769231), wk =   0.0218480
        k(   46) = (   0.8461538  -0.0769231   0.8461538), wk =   0.0218480
        k(   47) = (   0.7692308   0.0000000   0.7692308), wk =   0.0109240
        k(   48) = (   0.0000000   0.9230769   0.0000000), wk =   0.0054620
        k(   49) = (   0.9230769   0.0000000   0.9230769), wk =   0.0109240
        k(   50) = (  -0.1538462   0.3076923   0.0000000), wk =   0.0218480
        k(   51) = (  -0.2307692   0.3846154  -0.0769231), wk =   0.0436959
        k(   52) = (  -0.3076923   0.4615385  -0.1538462), wk =   0.0436959
        k(   53) = (  -0.3846154   0.5384615  -0.2307692), wk =   0.0436959
        k(   54) = (   0.5384615  -0.3846154   0.6923077), wk =   0.0436959
        k(   55) = (  -0.1538462   0.4615385   0.0000000), wk =   0.0218480
        k(   56) = (  -0.2307692   0.5384615  -0.0769231), wk =   0.0436959
        k(   57) = (  -0.3076923   0.6153846  -0.1538462), wk =   0.0436959
        k(   58) = (   0.6153846  -0.3076923   0.7692308), wk =   0.0436959
        k(   59) = (   0.5384615  -0.2307692   0.6923077), wk =   0.0436959
        k(   60) = (   0.4615385  -0.1538462   0.6153846), wk =   0.0436959
        k(   61) = (   0.3846154  -0.0769231   0.5384615), wk =   0.0436959
        k(   62) = (   0.3076923   0.0000000   0.4615385), wk =   0.0218480
        k(   63) = (  -0.1538462   0.6153846   0.0000000), wk =   0.0218480
        k(   64) = (  -0.2307692   0.6923077  -0.0769231), wk =   0.0436959
        k(   65) = (   0.6923077  -0.2307692   0.8461538), wk =   0.0436959
        k(   66) = (   0.6153846  -0.1538462   0.7692308), wk =   0.0436959
        k(   67) = (   0.5384615  -0.0769231   0.6923077), wk =   0.0436959
        k(   68) = (   0.4615385   0.0000000   0.6153846), wk =   0.0218480
        k(   69) = (  -0.1538462   0.7692308   0.0000000), wk =   0.0218480
        k(   70) = (   0.7692308  -0.1538462   0.9230769), wk =   0.0436959
        k(   71) = (   0.6923077  -0.0769231   0.8461538), wk =   0.0436959
        k(   72) = (   0.6153846   0.0000000   0.7692308), wk =   0.0218480
        k(   73) = (   0.8461538  -0.0769231   1.0000000), wk =   0.0218480
        k(   74) = (   0.7692308   0.0000000   0.9230769), wk =   0.0218480
        k(   75) = (  -0.3076923   0.6153846   0.0000000), wk =   0.0218480
        k(   76) = (   0.6153846  -0.3076923   0.9230769), wk =   0.0436959
        k(   77) = (   0.5384615  -0.2307692   0.8461538), wk =   0.0436959
        k(   78) = (   0.6923077  -0.2307692   1.0000000), wk =   0.0218480
        k(   79) = (   0.6153846  -0.1538462   0.9230769), wk =   0.0436959
        k(   80) = (   0.5384615  -0.0769231   0.8461538), wk =   0.0436959
        k(   81) = (   0.4615385   0.0000000   0.7692308), wk =   0.0218480
        k(   82) = (   0.6923077  -0.0769231   1.0000000), wk =   0.0218480
        k(   83) = (   0.6153846   0.0000000   0.9230769), wk =   0.0218480
        k(   84) = (   0.5384615  -0.0769231   1.0000000), wk =   0.0218480

     Dense  grid:    12627 G-vectors     FFT dimensions: (  36,  36,  36)

     Largest allocated arrays     est. size (Mb)     dimensions
        Kohn-Sham Wavefunctions         0.09 Mb     (    408,   15)
        NL pseudopotentials             0.22 Mb     (    408,   36)
        Each V/rho on FFT grid          0.18 Mb     (  11664)
        Each G-vector array             0.02 Mb     (   3157)
        G-vector shells                 0.00 Mb     (    176)
     Largest temporary arrays     est. size (Mb)     dimensions
        Auxiliary wavefunctions         0.37 Mb     (    408,   60)
        Each subspace H/S matrix        0.05 Mb     (  60,  60)
        Each <psi_i|beta_j> matrix      0.01 Mb     (     36,   15)
        Arrays for rho mixing           1.42 Mb     (  11664,   8)

     Check: negative/imaginary core charge=   -0.000143    0.000000

     Initial potential from superposition of free atoms

     starting charge   21.99954, renormalised to   22.00000
     Starting wfc are   18 randomized atomic wfcs
     Checking if some PAW data can be deallocated... 

     total cpu time spent up to now is        3.9 secs

     per-process dynamical memory:    11.6 Mb

     Self-consistent Calculation

     iteration #  1     ecut=    50.00 Ry     beta=0.70
     Davidson diagonalization with overlap
     ethr =  1.00E-02,  avg # of iterations =  3.8

     Threshold (ethr) on eigenvalues was too large:
     Diagonalizing with lowered threshold

     Davidson diagonalization with overlap
     ethr =  1.72E-05,  avg # of iterations =  4.5

     total cpu time spent up to now is       18.7 secs

     total energy              =    -426.05717284 Ry
     Harris-Foulkes estimate   =    -426.05698079 Ry
     estimated scf accuracy    <       0.00502987 Ry

     iteration #  2     ecut=    50.00 Ry     beta=0.70
     Davidson diagonalization with overlap
     ethr =  2.29E-05,  avg # of iterations =  1.0

     total cpu time spent up to now is       23.8 secs

     total energy              =    -426.05660140 Ry
     Harris-Foulkes estimate   =    -426.05766205 Ry
     estimated scf accuracy    <       0.00171515 Ry

     iteration #  3     ecut=    50.00 Ry     beta=0.70
     Davidson diagonalization with overlap
     ethr =  7.80E-06,  avg # of iterations =  2.3

     total cpu time spent up to now is       30.3 secs

     total energy              =    -426.05673505 Ry
     Harris-Foulkes estimate   =    -426.05818588 Ry
     estimated scf accuracy    <       0.00456418 Ry

     iteration #  4     ecut=    50.00 Ry     beta=0.70
     Davidson diagonalization with overlap
     ethr =  7.80E-06,  avg # of iterations =  2.1

     total cpu time spent up to now is       36.7 secs

     total energy              =    -426.05742114 Ry
     Harris-Foulkes estimate   =    -426.05742317 Ry
     estimated scf accuracy    <       0.00000782 Ry

     iteration #  5     ecut=    50.00 Ry     beta=0.70
     Davidson diagonalization with overlap
     ethr =  3.55E-08,  avg # of iterations =  3.0

     total cpu time spent up to now is       43.6 secs

     total energy              =    -426.05742530 Ry
     Harris-Foulkes estimate   =    -426.05742525 Ry
     estimated scf accuracy    <       0.00000011 Ry

     iteration #  6     ecut=    50.00 Ry     beta=0.70
     Davidson diagonalization with overlap
     ethr =  5.02E-10,  avg # of iterations =  2.9

     total cpu time spent up to now is       50.5 secs

     End of self-consistent calculation

          k = 0.0000 0.0000 0.0000 (  1591 PWs)   bands (ev):

     0.7458   4.0309   4.0309   4.0309   4.0523   4.0523   5.0868   5.0868
     5.0868   5.7105   5.7105  16.4345  16.4345  16.4345  17.3884

          k =-0.0769 0.0769-0.0769 (  1570 PWs)   bands (ev):

     0.8364   3.9745   3.9745   4.0327   4.1236   4.1236   5.0683   5.0835
     5.0835   5.7111   5.7111  14.9546  15.9803  15.9803  17.8850

          k =-0.1538 0.1538-0.1538 (  1570 PWs)   bands (ev):

     1.1042   3.9333   3.9333   4.0397   4.2013   4.2013   5.0189   5.0815
     5.0815   5.7105   5.7105  12.9908  15.3310  15.3310  17.8221

          k =-0.2308 0.2308-0.2308 (  1576 PWs)   bands (ev):

     1.5339   3.9210   3.9210   4.0553   4.2516   4.2516   4.9584   5.0993
     5.0993   5.7038   5.7038  11.1109  14.7604  14.7604  17.6891

          k =-0.3077 0.3077-0.3077 (  1591 PWs)   bands (ev):

     2.0871   3.9374   3.9374   4.0784   4.2556   4.2556   4.9325   5.1502
     5.1502   5.6866   5.6866   9.3932  14.3094  14.3094  17.6346

          k =-0.3846 0.3846-0.3846 (  1586 PWs)   bands (ev):

     2.6667   3.9778   3.9778   4.0924   4.2175   4.2175   5.0415   5.2222
     5.2222   5.6589   5.6589   7.8915  13.9966  13.9966  17.6755

          k =-0.4615 0.4615-0.4615 (  1574 PWs)   bands (ev):

     3.0674   4.0259   4.0259   4.0824   4.1658   4.1658   5.2788   5.2788
     5.3986   5.6329   5.6329   6.7381  13.8362  13.8362  17.7776

          k = 0.0000 0.1538 0.0000 (  1571 PWs)   bands (ev):

     0.8668   3.9215   4.0363   4.0363   4.0787   4.1675   5.0123   5.1085
     5.1085   5.6890   5.7310  15.2916  15.2916  15.7979  16.8802

          k =-0.0769 0.2308-0.0769 (  1568 PWs)   bands (ev):

     1.0759   3.8726   4.0075   4.0416   4.1478   4.2374   4.9394   5.1196
     5.1304   5.6682   5.7462  13.6468  14.6253  15.4633  17.0742

          k =-0.1538 0.3077-0.1538 (  1572 PWs)   bands (ev):

     1.4530   3.8484   3.9914   4.0507   4.2076   4.3001   4.8744   5.1205
     5.1626   5.6478   5.7538  11.7589  14.0776  14.8941  17.4087

          k =-0.2308 0.3846-0.2308 (  1586 PWs)   bands (ev):

     1.9691   3.8531   3.9999   4.0660   4.2262   4.3253   4.8450   5.1423
     5.2146   5.6257   5.7495   9.9922  13.6840  14.3075  17.2397

          k =-0.3077 0.4615-0.3077 (  1590 PWs)   bands (ev):

     2.5513   3.8827   4.0259   4.0801   4.2063   4.3015   4.9005   5.2228
     5.2716   5.6076   5.7293   8.4126  13.4666  13.7818  17.0440

          k =-0.3846 0.5385-0.3846 (  1582 PWs)   bands (ev):

     3.0321   3.9237   4.0401   4.0829   4.1877   4.2457   5.0720   5.2900
     5.4445   5.6146   5.6942   7.0993  13.3659  13.4387  16.9945

          k = 0.5385-0.3846 0.5385 (  1574 PWs)   bands (ev):

     3.1759   3.9608   4.0017   4.1010   4.1811   4.2220   5.1845   5.2448
     5.6315   5.6547   5.7135   6.5395  13.0983  13.6026  17.1169

          k = 0.4615-0.3077 0.4615 (  1582 PWs)   bands (ev):

     2.8959   3.9423   3.9930   4.1095   4.1622   4.2805   5.0880   5.1625
     5.3968   5.6084   5.7013   7.5031  13.0035  13.9462  17.4094

          k = 0.3846-0.2308 0.3846 (  1584 PWs)   bands (ev):

     2.3557   3.8938   3.9935   4.0761   4.2029   4.3241   4.9311   5.0810
     5.3013   5.6135   5.7344   8.9197  13.0900  14.4432  17.8535

          k = 0.3077-0.1538 0.3077 (  1579 PWs)   bands (ev):

     1.7833   3.8692   3.9768   4.0558   4.2191   4.3255   4.9124   5.0325
     5.2319   5.6372   5.7488  10.5686  13.3522  15.0547  18.1748

          k = 0.2308-0.0769 0.2308 (  1563 PWs)   bands (ev):

     1.3090   3.8745   3.9717   4.0452   4.1941   4.2782   4.9573   5.0287
     5.1776   5.6631   5.7465  12.3863  13.7758  15.7194  18.1068

          k = 0.1538 0.0000 0.1538 (  1566 PWs)   bands (ev):

     0.9863   3.9111   3.9817   4.0398   4.1429   4.2020   5.0182   5.0532
     5.1317   5.6879   5.7320  14.2170  14.4183  16.2349  17.6455

          k = 0.0000 0.3077 0.0000 (  1575 PWs)   bands (ev):

     1.2258   3.8146   4.0487   4.0487   4.1561   4.2928   4.8233   5.1757
     5.1757   5.6250   5.7710  13.9335  13.9335  14.4898  16.1002

          k =-0.0769 0.3846-0.0769 (  1579 PWs)   bands (ev):

     1.5462   3.7786   4.0458   4.0543   4.2164   4.3549   4.7201   5.2120
     5.2246   5.5851   5.7881  12.4237  13.3590  14.0748  16.2132

          k =-0.1538 0.4615-0.1538 (  1586 PWs)   bands (ev):

     2.0146   3.7708   4.0474   4.0572   4.2575   4.3948   4.6636   5.2465
     5.2788   5.5543   5.7976  10.6763  12.9477  13.4578  16.3140

          k =-0.2308 0.5385-0.2308 (  1589 PWs)   bands (ev):

     2.5738   3.7879   4.0528   4.0563   4.2709   4.3795   4.7018   5.3095
     5.3272   5.5546   5.7964   9.0534  12.7297  12.8055  16.1864

          k =-0.3077 0.6154-0.3077 (  1591 PWs)   bands (ev):

     3.0884   3.8161   4.0395   4.0528   4.2855   4.3271   4.8454   5.2757
     5.5403   5.6061   5.7922   7.6316  12.2357  12.7244  16.1638

          k = 0.6154-0.3077 0.6154 (  1579 PWs)   bands (ev):

     3.3406   3.8476   3.9945   4.0672   4.2565   4.3258   5.0200   5.1936
     5.6756   5.6885   6.1045   6.5627  11.8076  12.9368  16.2970

          k = 0.5385-0.2308 0.5385 (  1586 PWs)   bands (ev):

     3.1950   3.9077   3.9344   4.1125   4.1755   4.3803   5.0886   5.0939
     5.6158   5.7005   5.7326   7.2562  11.5569  13.3544  16.5904

          k = 0.4615-0.1538 0.4615 (  1579 PWs)   bands (ev):

     2.7415   3.8809   3.9665   4.0977   4.1659   4.4203   4.9839   5.0074
     5.4591   5.5676   5.7673   8.5918  11.5013  13.9464  17.0445

          k = 0.3846-0.0769 0.3846 (  1577 PWs)   bands (ev):

     2.1817   3.8484   4.0051   4.0413   4.2007   4.4150   4.9025   4.9674
     5.3817   5.5618   5.7792  10.1580  11.6448  14.6582  17.6569

          k = 0.3077 0.0000 0.3077 (  1570 PWs)   bands (ev):

     1.6785   3.8452   3.9968   4.0378   4.2061   4.3584   4.9052   4.9827
     5.2820   5.6088   5.7710  11.7631  12.0984  15.3690  18.4078

          k = 0.0000 0.4615 0.0000 (  1587 PWs)   bands (ev):

     1.8092   3.7297   4.0612   4.0612   4.2790   4.4112   4.5747   5.2906
     5.2906   5.5212   5.8136  12.7393  12.7393  12.8604  15.4680

          k =-0.0769 0.5385-0.0769 (  1587 PWs)   bands (ev):

     2.2235   3.7100   4.0601   4.0640   4.3439   4.4490   4.4828   5.3498
     5.3547   5.4754   5.8375  11.2913  12.2792  12.4202  15.5583

          k =-0.1538 0.6154-0.1538 (  1588 PWs)   bands (ev):

     2.7416   3.7176   4.0392   4.0617   4.3880   4.3990   4.5393   5.3240
     5.4409   5.5205   5.8633   9.7417  11.7159  12.0183  15.5725

          k =-0.2308 0.6923-0.2308 (  1596 PWs)   bands (ev):

     3.2479   3.7390   4.0115   4.0446   4.3659   4.4220   4.6556   5.2381
     5.6121   5.6155   5.9154   8.3033  11.0378  11.9828  15.5627

          k = 0.6923-0.2308 0.6923 (  1583 PWs)   bands (ev):

     3.5472   3.7638   4.0054   4.0121   4.3103   4.4631   4.8415   5.1313
     5.6941   5.7523   6.2811   7.0653  10.4923  12.1811  15.6803

          k = 0.6154-0.1538 0.6154 (  1574 PWs)   bands (ev):

     3.4955   3.8384   3.9512   4.0541   4.2278   4.5093   5.0001   5.0203
     5.7247   5.7520   6.1227   7.1844  10.1255  12.5994  15.9435

          k = 0.5385-0.0769 0.5385 (  1584 PWs)   bands (ev):

     3.1716   3.8976   3.9056   4.1146   4.1450   4.5333   4.9374   5.0469
     5.5888   5.6588   5.7838   8.4235   9.9697  13.2029  16.3583

          k = 0.4615 0.0000 0.4615 (  1572 PWs)   bands (ev):

     2.6806   3.8598   3.9632   4.0799   4.1688   4.4976   4.9231   4.9637
     5.5051   5.5263   5.7919   9.7325  10.1866  13.9315  16.9300

          k = 0.0000 0.6154 0.0000 (  1580 PWs)   bands (ev):

     2.5812   3.6801   4.0690   4.0690   4.3114   4.4386   4.5092   5.3818
     5.4431   5.4431   5.8823  11.0532  11.7581  11.7581  15.0349

          k =-0.0769 0.6923-0.0769 (  1594 PWs)   bands (ev):

     3.0448   3.6814   4.0406   4.0680   4.2444   4.5144   4.5409   5.2896
     5.5301   5.5388   5.9465  10.0016  11.0633  11.4349  15.1244

          k =-0.1538 0.7692-0.1538 (  1594 PWs)   bands (ev):

     3.5057   3.7024   3.9714   4.0557   4.2929   4.5703   4.5709   5.1824
     5.6344   5.6593   6.0710   8.8646  10.1591  11.3449  15.1467

          k = 0.7692-0.1538 0.7692 (  1591 PWs)   bands (ev):

     3.7097   3.7938   3.9479   4.0267   4.3242   4.6191   4.6834   5.0631
     5.7103   5.7851   6.4304   7.7605   9.4134  11.5024  15.2391

          k = 0.6923-0.0769 0.6923 (  1583 PWs)   bands (ev):

     3.6732   3.8795   3.9812   3.9833   4.2690   4.6558   4.8615   4.9486
     5.7590   5.8136   6.6466   7.3556   8.9065  11.8939  15.4643

          k = 0.6154 0.0000 0.6154 (  1584 PWs)   bands (ev):

     3.5178   3.8763   3.9358   4.0470   4.2002   4.6329   4.8982   4.9983
     5.7611   5.7821   5.9801   8.2416   8.8254  12.4812  15.8341

          k = 0.0000 0.7692 0.0000 (  1596 PWs)   bands (ev):

     3.4443   3.6804   4.0700   4.0715   4.0715   4.5593   4.6241   5.2132
     5.6000   5.6000   6.0699   9.2792  11.0417  11.0417  14.7927

          k =-0.0769 0.8462-0.0769 (  1588 PWs)   bands (ev):

     3.7063   3.8283   3.9340   4.0668   4.1581   4.5489   4.7093   5.1116
     5.6695   5.6819   6.2844   8.4640  10.3714  10.8845  14.8818

          k = 0.8462-0.0769 0.8462 (  1592 PWs)   bands (ev):

     3.7276   3.8693   4.0034   4.0494   4.3120   4.5571   4.7744   4.9918
     5.7226   5.7755   6.6992   7.7696   9.3472  10.9859  14.9519

          k = 0.7692 0.0000 0.7692 (  1596 PWs)   bands (ev):

     3.7085   3.9056   4.0001   4.0195   4.3095   4.7019   4.7830   4.9053
     5.7510   5.8307   7.1132   7.3933   8.5260  11.3357  15.1381

          k = 0.0000 0.9231 0.0000 (  1596 PWs)   bands (ev):

     3.7426   3.8710   4.0715   4.0715   4.1631   4.4950   4.8233   5.0235
     5.7044   5.7044   6.6124   7.7279  10.6558  10.6558  14.7290

          k = 0.9231 0.0000 0.9231 (  1592 PWs)   bands (ev):

     3.7772   3.8119   4.0658   4.0720   4.3682   4.4204   4.9051   4.9212
     5.7233   5.7400   7.1227   7.1281  10.1536  10.6910  14.8043

          k =-0.1538 0.3077 0.0000 (  1570 PWs)   bands (ev):

     1.3405   3.8302   4.0152   4.0469   4.1850   4.3051   4.8499   5.1110
     5.2028   5.6322   5.7660  12.9425  13.2064  15.2588  17.0217

          k =-0.2308 0.3846-0.0769 (  1579 PWs)   bands (ev):

     1.7639   3.8140   4.0214   4.0472   4.2188   4.3668   4.7871   5.1064
     5.2775   5.5941   5.7783  11.2365  12.6489  14.6860  17.2895

          k =-0.3077 0.4615-0.1538 (  1584 PWs)   bands (ev):

     2.3051   3.8262   4.0187   4.0672   4.2194   4.3878   4.7883   5.1354
     5.3515   5.5682   5.7770   9.5464  12.3529  14.0103  17.1427

          k =-0.3846 0.5385-0.2308 (  1590 PWs)   bands (ev):

     2.8626   3.8579   3.9962   4.1045   4.2012   4.3583   4.8895   5.2072
     5.4374   5.5860   5.7586   8.0445  12.2257  13.4261  16.9874

          k = 0.5385-0.3846 0.6923 (  1575 PWs)   bands (ev):

     3.2391   3.8837   3.9697   4.1104   4.2195   4.3053   5.0421   5.2144
     5.6370   5.6869   5.8250   6.8275  12.2256  13.0531  16.9165

          k =-0.1538 0.4615 0.0000 (  1580 PWs)   bands (ev):

     1.9137   3.7504   4.0486   4.0599   4.2662   4.4147   4.6168   5.2309
     5.3211   5.5340   5.8078  11.7544  12.1244  13.6202  16.3065

          k =-0.2308 0.5385-0.0769 (  1580 PWs)   bands (ev):

     2.4096   3.7504   4.0247   4.0770   4.2960   4.4497   4.5863   5.2530
     5.4093   5.5073   5.8232  10.2347  11.6303  12.9854  16.4667

          k =-0.3077 0.6154-0.1538 (  1583 PWs)   bands (ev):

     2.9511   3.7709   3.9886   4.0919   4.3086   4.4235   4.6763   5.2565
     5.4945   5.5738   5.8344   8.7069  11.3900  12.4003  16.4051

          k = 0.6154-0.3077 0.7692 (  1580 PWs)   bands (ev):

     3.3700   3.7918   3.9534   4.0935   4.3166   4.3898   4.8434   5.1862
     5.6531   5.7156   5.9579   7.3733  11.1679  12.1319  16.4527

          k = 0.5385-0.2308 0.6923 (  1576 PWs)   bands (ev):

     3.4774   3.8203   3.9265   4.1006   4.2711   4.4137   4.9728   5.1069
     5.7045   5.7319   6.3212   6.6924  10.9054  12.2853  16.6385

          k = 0.4615-0.1538 0.6154 (  1582 PWs)   bands (ev):

     3.2302   3.8505   3.9217   4.1258   4.2061   4.4608   4.8884   5.1444
     5.6142   5.6800   5.8044   7.8362  10.7386  12.7327  16.9576

          k = 0.3846-0.0769 0.5385 (  1582 PWs)   bands (ev):

     2.7507   3.8244   3.9676   4.1024   4.2037   4.4807   4.7740   5.1275
     5.4848   5.5460   5.8012   9.2457  10.7527  13.3680  17.3926

          k = 0.3077 0.0000 0.4615 (  1575 PWs)   bands (ev):

     2.2170   3.8060   4.0136   4.0583   4.2222   4.4416   4.7428   5.0971
     5.4054   5.5328   5.7967  10.6925  11.1069  14.0942  17.9006

          k =-0.1538 0.6154 0.0000 (  1587 PWs)   bands (ev):

     2.6647   3.6995   4.0323   4.0784   4.3847   4.4079   4.5089   5.3305
     5.4678   5.4742   5.8744  10.5810  11.2349  11.9711  15.7944

          k =-0.2308 0.6923-0.0769 (  1588 PWs)   bands (ev):

     3.1637   3.7139   3.9767   4.0859   4.3799   4.4494   4.5608   5.2477
     5.5596   5.5908   5.9309   9.3478  10.6483  11.4549  15.9283

          k = 0.6923-0.2308 0.8462 (  1592 PWs)   bands (ev):

     3.5671   3.7333   3.9325   4.0793   4.3739   4.5000   4.6724   5.1390
     5.6762   5.7346   6.1153   8.0630  10.1278  11.3116  15.9774

          k = 0.6154-0.1538 0.7692 (  1583 PWs)   bands (ev):

     3.6838   3.7888   3.9167   4.0735   4.3187   4.5517   4.8413   5.0242
     5.7405   5.7921   6.6566   7.0322   9.6622  11.5257  16.1595

          k = 0.5385-0.0769 0.6923 (  1577 PWs)   bands (ev):

     3.5492   3.8508   3.8918   4.0971   4.2438   4.5894   4.8565   5.0367
     5.7461   5.7738   6.0896   7.8091   9.3688  11.9885  16.4841

          k = 0.4615 0.0000 0.6154 (  1583 PWs)   bands (ev):

     3.2143   3.8459   3.9084   4.1279   4.1918   4.5694   4.7872   5.1164
     5.5988   5.6600   5.8208   8.9246   9.4629  12.6300  16.9394

          k =-0.1538 0.7692 0.0000 (  1593 PWs)   bands (ev):

     3.4790   3.6932   3.9683   4.0820   4.2279   4.5471   4.6034   5.1943
     5.6193   5.6283   6.0686   9.2037  10.5892  10.8424  15.4899

          k = 0.7692-0.1538 0.9231 (  1594 PWs)   bands (ev):

     3.7181   3.7994   3.9070   4.0798   4.3226   4.5555   4.6702   5.0776
     5.7037   5.7376   6.3316   8.3734   9.6776  10.6893  15.6277

          k = 0.6923-0.0769 0.8462 (  1594 PWs)   bands (ev):

     3.7179   3.8555   3.9652   4.0629   4.3492   4.6665   4.7304   4.9533
     5.7534   5.8198   6.8468   7.6020   8.8433  10.9021  15.7775

          k = 0.6154 0.0000 0.7692 (  1589 PWs)   bands (ev):

     3.6874   3.8785   3.9270   4.0645   4.2946   4.7074   4.8043   4.9196
     5.7740   5.8260   6.6617   7.7531   8.4951  11.3542  16.0649

          k = 0.8462-0.0769 1.0000 (  1598 PWs)   bands (ev):

     3.7423   3.8448   4.0221   4.0790   4.2803   4.5041   4.7999   5.0039
     5.7290   5.7293   6.6513   7.7682  10.2582  10.3189  15.3816

          k = 0.7692 0.0000 0.9231 (  1593 PWs)   bands (ev):

     3.7467   3.8176   4.0566   4.0634   4.3873   4.5305   4.8518   4.8959
     5.7521   5.7907   7.2089   7.2327   9.3357  10.4744  15.5312

          k =-0.3077 0.6154 0.0000 (  1585 PWs)   bands (ev):

     2.8962   3.7567   3.9677   4.1031   4.3134   4.5269   4.5622   5.2335
     5.5007   5.5549   5.8519   9.7458  10.3085  12.3073  17.4251

          k = 0.6154-0.3077 0.9231 (  1593 PWs)   bands (ev):

     3.3558   3.7776   3.9133   4.1167   4.3266   4.5208   4.6772   5.1625
     5.6411   5.6835   5.9177   8.5162  10.0141  11.6614  17.3413

          k = 0.5385-0.2308 0.8462 (  1580 PWs)   bands (ev):

     3.6313   3.7789   3.8899   4.1132   4.3503   4.4940   4.8322   5.0564
     5.7316   5.7784   6.3475   7.3153  10.0196  11.2480  17.3012

          k = 0.6923-0.2308 1.0000 (  1590 PWs)   bands (ev):

     3.5617   3.7321   3.9056   4.1054   4.4476   4.4665   4.6058   5.1366
     5.6839   5.6968   6.0842   8.8545   9.7506  10.7181  17.0611

          k = 0.6154-0.1538 0.9231 (  1594 PWs)   bands (ev):

     3.7453   3.7615   3.9108   4.1041   4.4436   4.5601   4.6930   5.0088
     5.7593   5.7958   6.4963   7.9649   9.3225  10.3320  17.1696

          k = 0.5385-0.0769 0.8462 (  1587 PWs)   bands (ev):

     3.7293   3.7967   3.9343   4.1015   4.4005   4.6215   4.7785   4.9295
     5.7834   5.8225   6.8163   7.5065   8.9994  10.4773  17.3754

          k = 0.4615 0.0000 0.7692 (  1578 PWs)   bands (ev):

     3.6446   3.7964   3.8863   4.1153   4.3550   4.6441   4.6765   5.0390
     5.7652   5.7731   6.2302   8.2843   8.9924  10.9704  17.6410

          k = 0.6923-0.0769 1.0000 (  1591 PWs)   bands (ev):

     3.7466   3.7927   4.0020   4.0910   4.4582   4.5259   4.7483   4.9487
     5.7811   5.7832   6.7893   7.8359   9.5155   9.7605  16.8929

          k = 0.6154 0.0000 0.9231 (  1593 PWs)   bands (ev):

     3.7373   3.7912   4.0305   4.0794   4.4527   4.6357   4.7809   4.8497
     5.7956   5.8303   7.2422   7.4713   8.8021   9.9254  17.0969

          k = 0.5385-0.0769 1.0000 (  1590 PWs)   bands (ev):

     3.7530   3.7627   4.0091   4.0921   4.5187   4.6091   4.7292   4.8732
     5.8119   5.8266   7.0409   7.7469   8.9168   9.5799  18.3672

     the Fermi energy is     6.8396 ev

!    total energy              =    -426.05742533 Ry
     Harris-Foulkes estimate   =    -426.05742534 Ry
     estimated scf accuracy    <       0.00000002 Ry

     total all-electron energy =     -6619.816962 Ry

     The total energy is the sum of the following terms:

     one-electron contribution =    -116.90333880 Ry
     hartree contribution      =      57.94807236 Ry
     xc contribution           =     -73.50247557 Ry
     ewald contribution        =    -127.80442424 Ry
     one-center paw contrib.   =    -165.79515862 Ry
     smearing contrib. (-TS)   =      -0.00010046 Ry

     convergence has been achieved in   6 iterations

     Writing output data file Cu.save

     init_run     :      2.96s CPU      3.08s WALL (       1 calls)
     electrons    :     45.58s CPU     46.62s WALL (       1 calls)

     Called by init_run:
     wfcinit      :      2.05s CPU      2.11s WALL (       1 calls)
     potinit      :      0.34s CPU      0.35s WALL (       1 calls)

     Called by electrons:
     c_bands      :     36.89s CPU     37.68s WALL (       7 calls)
     sum_band     :      6.21s CPU      6.32s WALL (       7 calls)
     v_of_rho     :      0.15s CPU      0.15s WALL (       7 calls)
     newd         :      0.25s CPU      0.25s WALL (       7 calls)
     mix_rho      :      0.19s CPU      0.20s WALL (       7 calls)

     Called by c_bands:
     init_us_2    :      0.71s CPU      0.71s WALL (    1260 calls)
     cegterg      :     35.14s CPU     35.86s WALL (     588 calls)

     Called by *egterg:
     h_psi        :     30.53s CPU     31.16s WALL (    2313 calls)
     s_psi        :      0.84s CPU      0.82s WALL (    2313 calls)
     g_psi        :      0.22s CPU      0.23s WALL (    1641 calls)
     cdiaghg      :      2.41s CPU      2.43s WALL (    2145 calls)

     Called by h_psi:
     add_vuspsi   :      0.81s CPU      0.83s WALL (    2313 calls)

     General routines
     calbec       :      1.28s CPU      1.26s WALL (    2901 calls)
     fft          :      0.07s CPU      0.07s WALL (      93 calls)
     fftw         :     31.15s CPU     31.11s WALL (   60338 calls)
     davcio       :      0.12s CPU      0.13s WALL (    1848 calls)

     Parallel routines
     fft_scatter  :      5.72s CPU      5.77s WALL (   60431 calls)

     PAW routines
     PAW_pot      :      2.20s CPU      2.34s WALL (       7 calls)
     PAW_ddot     :      0.19s CPU      0.19s WALL (      37 calls)
     PAW_symme    :      0.01s CPU      0.01s WALL (      14 calls)

     PWSCF        :    49.72s CPU        50.94s WALL


   This run was terminated on:  20:21:14  11Jul2015            

=------------------------------------------------------------------------------=
   JOB DONE.
=------------------------------------------------------------------------------=
