
     Program PWSCF v.5.0.2 (svn rev. 9656) starts on 12Jul2015 at  2:22:47 

     This program is part of the open-source Quantum ESPRESSO suite
     for quantum simulation of materials; please cite
         "P. Giannozzi et al., J. Phys.:Condens. Matter 21 395502 (2009);
          URL http://www.quantum-espresso.org", 
     in publications or presentations arising from this work. More details at
     http://www.quantum-espresso.org/quote.php

     Parallel version (MPI), running on     4 processors
     R & G space division:  proc/nbgrp/npool/nimage =       4

     Current dimensions of program PWSCF are:
     Max number of different atomic species (ntypx) = 10
     Max number of k-points (npk) =  40000
     Max angular momentum in pseudopotentials (lmaxx) =  3
     Waiting for input...
     Reading input from standard input
               file Al.pbe-n-kjpaw_psl.0.1.UPF: wavefunction(s)  3S renormalized

     Subspace diagonalization in iterative solution of the eigenvalue problem:
     a serial algorithm will be used


     Parallelization info
     --------------------
     sticks:   dense  smooth     PW     G-vecs:    dense   smooth      PW
     Min         180     180     52                 3168     3168     526
     Max         181     181     53                 3171     3171     529
     Sum         721     721    211                12675    12675    2109



     bravais-lattice index     =            2
     lattice parameter (alat)  =       7.6300  a.u.
     unit-cell volume          =     111.0487 (a.u.)^3
     number of atoms/cell      =            1
     number of atomic types    =            1
     number of electrons       =         3.00
     number of Kohn-Sham states=            6
     kinetic-energy cutoff     =      90.0000  Ry
     charge density cutoff     =     360.0000  Ry
     convergence threshold     =      1.0E-07
     mixing beta               =       0.7000
     number of iterations used =            8  plain     mixing
     Exchange-correlation      =  SLA  PW   PBX  PBC ( 1 4 3 4 0)
     EXX-fraction              =        0.00

     celldm(1)=   7.630000  celldm(2)=   0.000000  celldm(3)=   0.000000
     celldm(4)=   0.000000  celldm(5)=   0.000000  celldm(6)=   0.000000

     crystal axes: (cart. coord. in units of alat)
               a(1) = (  -0.500000   0.000000   0.500000 )  
               a(2) = (   0.000000   0.500000   0.500000 )  
               a(3) = (  -0.500000   0.500000   0.000000 )  

     reciprocal axes: (cart. coord. in units 2 pi/alat)
               b(1) = ( -1.000000 -1.000000  1.000000 )  
               b(2) = (  1.000000  1.000000  1.000000 )  
               b(3) = ( -1.000000  1.000000 -1.000000 )  


     PseudoPot. # 1 for Al read from file:
     ./Al.pbe-n-kjpaw_psl.0.1.UPF
     MD5 check sum: 023d9faf819c76fc4df1f064efe7b7b2
     Pseudo is Projector augmented-wave + core cor, Zval =  3.0
     Generated using "atomic" code by A. Dal Corso  v.5.0.2 svn rev. 9415
     Shape of augmentation charge: PSQ
     Using radial grid of 1135 points,  4 beta functions with: 
                l(1) =   0
                l(2) =   0
                l(3) =   1
                l(4) =   1
     Q(r) pseudized with 0 coefficients 


     atomic species   valence    mass     pseudopotential
        Al             3.00    26.98154     Al( 1.00)

     48 Sym. Ops., with inversion, found



   Cartesian axes

     site n.     atom                  positions (alat units)
         1           Al  tau(   1) = (   0.0000000   0.0000000   0.0000000  )

     number of k points=    20  gaussian smearing, width (Ry)=  0.0030
                       cart. coord. in units 2pi/alat
        k(    1) = (   0.0000000   0.0000000   0.0000000), wk =   0.0058309
        k(    2) = (  -0.1428571   0.1428571  -0.1428571), wk =   0.0466472
        k(    3) = (  -0.2857143   0.2857143  -0.2857143), wk =   0.0466472
        k(    4) = (  -0.4285714   0.4285714  -0.4285714), wk =   0.0466472
        k(    5) = (   0.0000000   0.2857143   0.0000000), wk =   0.0349854
        k(    6) = (  -0.1428571   0.4285714  -0.1428571), wk =   0.1399417
        k(    7) = (  -0.2857143   0.5714286  -0.2857143), wk =   0.1399417
        k(    8) = (   0.5714286  -0.2857143   0.5714286), wk =   0.1399417
        k(    9) = (   0.4285714  -0.1428571   0.4285714), wk =   0.1399417
        k(   10) = (   0.2857143  -0.0000000   0.2857143), wk =   0.0699708
        k(   11) = (   0.0000000   0.5714286   0.0000000), wk =   0.0349854
        k(   12) = (  -0.1428571   0.7142857  -0.1428571), wk =   0.1399417
        k(   13) = (   0.7142857  -0.1428571   0.7142857), wk =   0.1399417
        k(   14) = (   0.5714286   0.0000000   0.5714286), wk =   0.0699708
        k(   15) = (   0.0000000   0.8571429   0.0000000), wk =   0.0349854
        k(   16) = (   0.8571429  -0.0000000   0.8571429), wk =   0.0699708
        k(   17) = (  -0.2857143   0.5714286   0.0000000), wk =   0.1399417
        k(   18) = (   0.5714286  -0.2857143   0.8571429), wk =   0.2798834
        k(   19) = (   0.7142857  -0.1428571   1.0000000), wk =   0.1399417
        k(   20) = (   0.5714286   0.0000000   0.8571429), wk =   0.1399417

     Dense  grid:    12675 G-vectors     FFT dimensions: (  36,  36,  36)

     Largest allocated arrays     est. size (Mb)     dimensions
        Kohn-Sham Wavefunctions         0.04 Mb     (    409,    6)
        NL pseudopotentials             0.05 Mb     (    409,    8)
        Each V/rho on FFT grid          0.18 Mb     (  11664)
        Each G-vector array             0.02 Mb     (   3171)
        G-vector shells                 0.00 Mb     (    177)
     Largest temporary arrays     est. size (Mb)     dimensions
        Auxiliary wavefunctions         0.15 Mb     (    409,   24)
        Each subspace H/S matrix        0.01 Mb     (  24,  24)
        Each <psi_i|beta_j> matrix      0.00 Mb     (      8,    6)
        Arrays for rho mixing           1.42 Mb     (  11664,   8)

     Check: negative/imaginary core charge=   -0.000001    0.000000

     Initial potential from superposition of free atoms

     starting charge    2.99771, renormalised to    3.00000
     Starting wfc are    4 randomized atomic wfcs
     Checking if some PAW data can be deallocated... 

     total cpu time spent up to now is        1.4 secs

     per-process dynamical memory:     9.9 Mb

     Self-consistent Calculation

     iteration #  1     ecut=    90.00 Ry     beta=0.70
     Davidson diagonalization with overlap
     ethr =  1.00E-02,  avg # of iterations =  5.0

     Threshold (ethr) on eigenvalues was too large:
     Diagonalizing with lowered threshold

     Davidson diagonalization with overlap
     ethr =  2.06E-04,  avg # of iterations =  2.0

     total cpu time spent up to now is        3.7 secs

     total energy              =     -39.50640282 Ry
     Harris-Foulkes estimate   =     -39.50777527 Ry
     estimated scf accuracy    <       0.00582669 Ry

     iteration #  2     ecut=    90.00 Ry     beta=0.70
     Davidson diagonalization with overlap
     ethr =  1.94E-04,  avg # of iterations =  1.1

     total cpu time spent up to now is        4.5 secs

     total energy              =     -39.50636245 Ry
     Harris-Foulkes estimate   =     -39.50646961 Ry
     estimated scf accuracy    <       0.00043368 Ry

     iteration #  3     ecut=    90.00 Ry     beta=0.70
     Davidson diagonalization with overlap
     ethr =  1.45E-05,  avg # of iterations =  1.7

     total cpu time spent up to now is        5.4 secs

     total energy              =     -39.50638332 Ry
     Harris-Foulkes estimate   =     -39.50638390 Ry
     estimated scf accuracy    <       0.00000142 Ry

     iteration #  4     ecut=    90.00 Ry     beta=0.70
     Davidson diagonalization with overlap
     ethr =  4.72E-08,  avg # of iterations =  3.1

     total cpu time spent up to now is        6.5 secs

     total energy              =     -39.50638503 Ry
     Harris-Foulkes estimate   =     -39.50638490 Ry
     estimated scf accuracy    <       0.00000010 Ry

     iteration #  5     ecut=    90.00 Ry     beta=0.70
     Davidson diagonalization with overlap
     ethr =  3.39E-09,  avg # of iterations =  2.5

     total cpu time spent up to now is        7.5 secs

     total energy              =     -39.50638483 Ry
     Harris-Foulkes estimate   =     -39.50638508 Ry
     estimated scf accuracy    <       0.00000063 Ry

     iteration #  6     ecut=    90.00 Ry     beta=0.70
     Davidson diagonalization with overlap
     ethr =  3.39E-09,  avg # of iterations =  1.9

     total cpu time spent up to now is        8.4 secs

     End of self-consistent calculation

          k = 0.0000 0.0000 0.0000 (  1639 PWs)   bands (ev):

    -3.2233  20.5721  20.5721  22.0492  22.0492  22.0492

          k =-0.1429 0.1429-0.1429 (  1588 PWs)   bands (ev):

    -2.6683  15.5395  19.4760  19.4760  22.6129  23.8490

          k =-0.2857 0.2857-0.2857 (  1600 PWs)   bands (ev):

    -1.0161  10.0813  18.7578  18.7578  22.0793  22.2633

          k =-0.4286 0.4286-0.4286 (  1595 PWs)   bands (ev):

     1.6961   5.4255  18.9412  18.9412  20.0574  20.0574

          k = 0.0000 0.2857 0.0000 (  1591 PWs)   bands (ev):

    -2.4838  17.4625  17.4625  17.6685  20.6244  21.6566

          k =-0.1429 0.4286-0.1429 (  1602 PWs)   bands (ev):

    -1.1988  12.2242  16.3754  17.9071  18.3334  22.2118

          k =-0.2857 0.5714-0.2857 (  1599 PWs)   bands (ev):

     1.1571   7.3305  15.8098  16.2305  17.9741  24.0070

          k = 0.5714-0.2857 0.5714 (  1590 PWs)   bands (ev):

     3.2915   4.5500  14.3232  17.0312  18.8728  22.6175

          k = 0.4286-0.1429 0.4286 (  1591 PWs)   bands (ev):

     0.2559   8.8518  13.8525  18.7729  20.7301  22.1197

          k = 0.2857-0.0000 0.2857 (  1592 PWs)   bands (ev):

    -1.7481  13.5213  14.8594  21.3549  22.0088  23.3730

          k = 0.0000 0.5714 0.0000 (  1612 PWs)   bands (ev):

    -0.2885  14.4944  14.8361  14.9537  14.9537  18.4742

          k =-0.1429 0.7143-0.1429 (  1606 PWs)   bands (ev):

     1.6912  10.1628  11.6542  14.4849  15.9716  20.4948

          k = 0.7143-0.1429 0.7143 (  1613 PWs)   bands (ev):

     4.6646   5.9420   9.8075  14.9648  16.6766  25.0575

          k = 0.5714 0.0000 0.5714 (  1604 PWs)   bands (ev):

     2.5871   8.0647   9.5744  16.3954  18.2870  26.6210

          k = 0.0000 0.8571 0.0000 (  1608 PWs)   bands (ev):

     3.2682   8.3867  13.3816  13.6954  13.6954  17.1857

          k = 0.8571-0.0000 0.8571 (  1614 PWs)   bands (ev):

     5.3413   6.6851   9.5216  13.8551  15.2687  19.8790

          k =-0.2857 0.5714 0.0000 (  1595 PWs)   bands (ev):

     0.4360  10.7958  12.2516  15.2072  20.3139  22.0533

          k = 0.5714-0.2857 0.8571 (  1603 PWs)   bands (ev):

     3.1155   6.7778  11.8044  13.0733  21.2263  22.4985

          k = 0.7143-0.1429 1.0000 (  1603 PWs)   bands (ev):

     3.9720   9.0409   9.4301  11.0121  19.0059  20.9716

          k = 0.5714 0.0000 0.8571 (  1603 PWs)   bands (ev):

     6.0516   6.7017   8.1593  11.2306  20.6419  25.0696

     the Fermi energy is     8.0737 ev

!    total energy              =     -39.50638485 Ry
     Harris-Foulkes estimate   =     -39.50638485 Ry
     estimated scf accuracy    <          3.1E-13 Ry

     total all-electron energy =      -485.649167 Ry

     The total energy is the sum of the following terms:

     one-electron contribution =       3.16450190 Ry
     hartree contribution      =       0.00632393 Ry
     xc contribution           =      -3.03180135 Ry
     ewald contribution        =      -5.40809419 Ry
     one-center paw contrib.   =     -34.23725728 Ry
     smearing contrib. (-TS)   =      -0.00005787 Ry

     convergence has been achieved in   6 iterations

     Writing output data file Al.save

     init_run     :      0.65s CPU      0.87s WALL (       1 calls)
     electrons    :      4.93s CPU      7.06s WALL (       1 calls)

     Called by init_run:
     wfcinit      :      0.18s CPU      0.26s WALL (       1 calls)
     potinit      :      0.09s CPU      0.13s WALL (       1 calls)

     Called by electrons:
     c_bands      :      3.56s CPU      5.09s WALL (       7 calls)
     sum_band     :      0.74s CPU      1.06s WALL (       7 calls)
     v_of_rho     :      0.15s CPU      0.23s WALL (       7 calls)
     newd         :      0.06s CPU      0.10s WALL (       7 calls)
     mix_rho      :      0.09s CPU      0.11s WALL (       7 calls)

     Called by c_bands:
     init_us_2    :      0.08s CPU      0.10s WALL (     300 calls)
     cegterg      :      3.48s CPU      4.99s WALL (     140 calls)

     Called by *egterg:
     h_psi        :      3.25s CPU      4.69s WALL (     508 calls)
     s_psi        :      0.01s CPU      0.02s WALL (     508 calls)
     g_psi        :      0.02s CPU      0.03s WALL (     348 calls)
     cdiaghg      :      0.14s CPU      0.15s WALL (     468 calls)

     Called by h_psi:
     add_vuspsi   :      0.03s CPU      0.03s WALL (     508 calls)

     General routines
     calbec       :      0.06s CPU      0.17s WALL (     648 calls)
     fft          :      0.09s CPU      0.18s WALL (      93 calls)
     fftw         :      3.47s CPU      4.96s WALL (    5370 calls)
     davcio       :      0.01s CPU      0.02s WALL (     440 calls)

     Parallel routines
     fft_scatter  :      1.06s CPU      2.46s WALL (    5463 calls)

     PAW routines
     PAW_pot      :      0.39s CPU      0.55s WALL (       7 calls)
     PAW_ddot     :      0.07s CPU      0.08s WALL (      37 calls)
     PAW_symme    :      0.00s CPU      0.00s WALL (      14 calls)

     PWSCF        :     6.19s CPU         8.68s WALL


   This run was terminated on:   2:22:55  12Jul2015            

=------------------------------------------------------------------------------=
   JOB DONE.
=------------------------------------------------------------------------------=
