
     Program PWSCF v.5.0.2 (svn rev. 9656) starts on 11Jul2015 at 20:49:36 

     This program is part of the open-source Quantum ESPRESSO suite
     for quantum simulation of materials; please cite
         "P. Giannozzi et al., J. Phys.:Condens. Matter 21 395502 (2009);
          URL http://www.quantum-espresso.org", 
     in publications or presentations arising from this work. More details at
     http://www.quantum-espresso.org/quote.php

     Parallel version (MPI), running on     4 processors
     R & G space division:  proc/nbgrp/npool/nimage =       4

     Current dimensions of program PWSCF are:
     Max number of different atomic species (ntypx) = 10
     Max number of k-points (npk) =  40000
     Max angular momentum in pseudopotentials (lmaxx) =  3
     Waiting for input...
     Reading input from standard input
               file Cu.pbe.UPF: wavefunction(s)  4S 3D renormalized

     Subspace diagonalization in iterative solution of the eigenvalue problem:
     a serial algorithm will be used


     Parallelization info
     --------------------
     sticks:   dense  smooth     PW     G-vecs:    dense   smooth      PW
     Min         321     321     94                 7681     7681    1227
     Max         322     322     95                 7686     7686    1228
     Sum        1285    1285    379                30731    30731    4909



     bravais-lattice index     =            2
     lattice parameter (alat)  =      10.2000  a.u.
     unit-cell volume          =     265.3020 (a.u.)^3
     number of atoms/cell      =            2
     number of atomic types    =            1
     number of electrons       =        22.00
     number of Kohn-Sham states=           15
     kinetic-energy cutoff     =      90.0000  Ry
     charge density cutoff     =     360.0000  Ry
     convergence threshold     =      1.0E-07
     mixing beta               =       0.7000
     number of iterations used =            8  plain     mixing
     Exchange-correlation      =  SLA  PW   PBX  PBC ( 1 4 3 4 0)
     EXX-fraction              =        0.00

     celldm(1)=  10.200000  celldm(2)=   0.000000  celldm(3)=   0.000000
     celldm(4)=   0.000000  celldm(5)=   0.000000  celldm(6)=   0.000000

     crystal axes: (cart. coord. in units of alat)
               a(1) = (  -0.500000   0.000000   0.500000 )  
               a(2) = (   0.000000   0.500000   0.500000 )  
               a(3) = (  -0.500000   0.500000   0.000000 )  

     reciprocal axes: (cart. coord. in units 2 pi/alat)
               b(1) = ( -1.000000 -1.000000  1.000000 )  
               b(2) = (  1.000000  1.000000  1.000000 )  
               b(3) = ( -1.000000  1.000000 -1.000000 )  


     PseudoPot. # 1 for Cu read from file:
     ./Cu.pbe.UPF
     MD5 check sum: 0c51aa2b3b25e0d1c3270f17c0a46a12
     Pseudo is Projector augmented-wave + core cor, Zval = 11.0
     Generated using "atomic" code by A. Dal Corso  v.5.0.99 svn rev. 10869
     Shape of augmentation charge: BESSEL
     Using radial grid of 1199 points,  6 beta functions with: 
                l(1) =   0
                l(2) =   0
                l(3) =   1
                l(4) =   1
                l(5) =   2
                l(6) =   2
     Q(r) pseudized with 0 coefficients 


     atomic species   valence    mass     pseudopotential
        Cu            11.00    63.54600     Cu( 1.00)

     24 Sym. Ops. (no inversion) found
          (note: 24 additional sym.ops. were found but ignored
           their fractional translations are incommensurate with FFT grid)


   Cartesian axes

     site n.     atom                  positions (alat units)
         1           Cu  tau(   1) = (   0.0000000   0.0000000   0.0000000  )
         2           Cu  tau(   2) = (   0.2500000   0.2500000   0.2500000  )

     number of k points=    47  gaussian smearing, width (Ry)=  0.0030
                       cart. coord. in units 2pi/alat
        k(    1) = (   0.0000000   0.0000000   0.0000000), wk =   0.0020000
        k(    2) = (  -0.1000000   0.1000000  -0.1000000), wk =   0.0160000
        k(    3) = (  -0.2000000   0.2000000  -0.2000000), wk =   0.0160000
        k(    4) = (  -0.3000000   0.3000000  -0.3000000), wk =   0.0160000
        k(    5) = (  -0.4000000   0.4000000  -0.4000000), wk =   0.0160000
        k(    6) = (   0.5000000  -0.5000000   0.5000000), wk =   0.0080000
        k(    7) = (   0.0000000   0.2000000   0.0000000), wk =   0.0120000
        k(    8) = (  -0.1000000   0.3000000  -0.1000000), wk =   0.0480000
        k(    9) = (  -0.2000000   0.4000000  -0.2000000), wk =   0.0480000
        k(   10) = (  -0.3000000   0.5000000  -0.3000000), wk =   0.0480000
        k(   11) = (   0.6000000  -0.4000000   0.6000000), wk =   0.0480000
        k(   12) = (   0.5000000  -0.3000000   0.5000000), wk =   0.0480000
        k(   13) = (   0.4000000  -0.2000000   0.4000000), wk =   0.0480000
        k(   14) = (   0.3000000  -0.1000000   0.3000000), wk =   0.0480000
        k(   15) = (   0.2000000   0.0000000   0.2000000), wk =   0.0240000
        k(   16) = (   0.0000000   0.4000000   0.0000000), wk =   0.0120000
        k(   17) = (  -0.1000000   0.5000000  -0.1000000), wk =   0.0480000
        k(   18) = (  -0.2000000   0.6000000  -0.2000000), wk =   0.0480000
        k(   19) = (   0.7000000  -0.3000000   0.7000000), wk =   0.0480000
        k(   20) = (   0.6000000  -0.2000000   0.6000000), wk =   0.0480000
        k(   21) = (   0.5000000  -0.1000000   0.5000000), wk =   0.0480000
        k(   22) = (   0.4000000   0.0000000   0.4000000), wk =   0.0240000
        k(   23) = (   0.0000000   0.6000000   0.0000000), wk =   0.0120000
        k(   24) = (  -0.1000000   0.7000000  -0.1000000), wk =   0.0480000
        k(   25) = (   0.8000000  -0.2000000   0.8000000), wk =   0.0480000
        k(   26) = (   0.7000000  -0.1000000   0.7000000), wk =   0.0480000
        k(   27) = (   0.6000000  -0.0000000   0.6000000), wk =   0.0240000
        k(   28) = (   0.0000000   0.8000000   0.0000000), wk =   0.0120000
        k(   29) = (   0.9000000  -0.1000000   0.9000000), wk =   0.0480000
        k(   30) = (   0.8000000   0.0000000   0.8000000), wk =   0.0240000
        k(   31) = (   0.0000000  -1.0000000   0.0000000), wk =   0.0060000
        k(   32) = (  -0.2000000   0.4000000   0.0000000), wk =   0.0480000
        k(   33) = (  -0.3000000   0.5000000  -0.1000000), wk =   0.0960000
        k(   34) = (   0.6000000  -0.4000000   0.8000000), wk =   0.0960000
        k(   35) = (   0.5000000  -0.3000000   0.7000000), wk =   0.0480000
        k(   36) = (  -0.2000000   0.6000000   0.0000000), wk =   0.0480000
        k(   37) = (   0.7000000  -0.3000000   0.9000000), wk =   0.0960000
        k(   38) = (   0.6000000  -0.2000000   0.8000000), wk =   0.0960000
        k(   39) = (   0.5000000  -0.1000000   0.7000000), wk =   0.0960000
        k(   40) = (   0.4000000   0.0000000   0.6000000), wk =   0.0480000
        k(   41) = (   0.8000000  -0.2000000   1.0000000), wk =   0.0480000
        k(   42) = (   0.7000000  -0.1000000   0.9000000), wk =   0.0960000
        k(   43) = (   0.6000000   0.0000000   0.8000000), wk =   0.0480000
        k(   44) = (  -0.2000000  -1.0000000   0.0000000), wk =   0.0240000
        k(   45) = (   0.6000000  -0.2000000   1.0000000), wk =   0.0480000
        k(   46) = (   0.5000000  -0.1000000   0.9000000), wk =   0.0480000
        k(   47) = (  -0.4000000  -1.0000000   0.0000000), wk =   0.0240000

     Dense  grid:    30731 G-vectors     FFT dimensions: (  45,  45,  45)

     Largest allocated arrays     est. size (Mb)     dimensions
        Kohn-Sham Wavefunctions         0.22 Mb     (    968,   15)
        NL pseudopotentials             0.53 Mb     (    968,   36)
        Each V/rho on FFT grid          0.37 Mb     (  24300)
        Each G-vector array             0.06 Mb     (   7683)
        G-vector shells                 0.00 Mb     (    319)
     Largest temporary arrays     est. size (Mb)     dimensions
        Auxiliary wavefunctions         0.89 Mb     (    968,   60)
        Each subspace H/S matrix        0.05 Mb     (  60,  60)
        Each <psi_i|beta_j> matrix      0.01 Mb     (     36,   15)
        Arrays for rho mixing           2.97 Mb     (  24300,   8)

     Check: negative/imaginary core charge=   -0.000024    0.000000

     Initial potential from superposition of free atoms

     starting charge   21.99954, renormalised to   22.00000
     Starting wfc are   18 randomized atomic wfcs
     Checking if some PAW data can be deallocated... 

     total cpu time spent up to now is        5.4 secs

     per-process dynamical memory:    16.1 Mb

     Self-consistent Calculation

     iteration #  1     ecut=    90.00 Ry     beta=0.70
     Davidson diagonalization with overlap
     ethr =  1.00E-02,  avg # of iterations =  3.7

     Threshold (ethr) on eigenvalues was too large:
     Diagonalizing with lowered threshold

     Davidson diagonalization with overlap
     ethr =  1.04E-04,  avg # of iterations =  3.5

     total cpu time spent up to now is       23.5 secs

     total energy              =    -426.02712717 Ry
     Harris-Foulkes estimate   =    -426.04165518 Ry
     estimated scf accuracy    <       0.02168341 Ry

     iteration #  2     ecut=    90.00 Ry     beta=0.70
     Davidson diagonalization with overlap
     ethr =  9.86E-05,  avg # of iterations =  3.1

     total cpu time spent up to now is       34.4 secs

     total energy              =    -426.01120134 Ry
     Harris-Foulkes estimate   =    -426.07141358 Ry
     estimated scf accuracy    <       0.21470001 Ry

     iteration #  3     ecut=    90.00 Ry     beta=0.70
     Davidson diagonalization with overlap
     ethr =  9.86E-05,  avg # of iterations =  3.0

     total cpu time spent up to now is       44.4 secs

     total energy              =    -426.03817345 Ry
     Harris-Foulkes estimate   =    -426.04020099 Ry
     estimated scf accuracy    <       0.00423239 Ry

     iteration #  4     ecut=    90.00 Ry     beta=0.70
     Davidson diagonalization with overlap
     ethr =  1.92E-05,  avg # of iterations =  2.3

     total cpu time spent up to now is       53.5 secs

     total energy              =    -426.03920014 Ry
     Harris-Foulkes estimate   =    -426.03991713 Ry
     estimated scf accuracy    <       0.00251086 Ry

     iteration #  5     ecut=    90.00 Ry     beta=0.70
     Davidson diagonalization with overlap
     ethr =  1.14E-05,  avg # of iterations =  1.1

     total cpu time spent up to now is       60.7 secs

     total energy              =    -426.03949659 Ry
     Harris-Foulkes estimate   =    -426.03950163 Ry
     estimated scf accuracy    <       0.00001720 Ry

     iteration #  6     ecut=    90.00 Ry     beta=0.70
     Davidson diagonalization with overlap
     ethr =  7.82E-08,  avg # of iterations =  3.1

     total cpu time spent up to now is       71.3 secs

     total energy              =    -426.03952291 Ry
     Harris-Foulkes estimate   =    -426.03952400 Ry
     estimated scf accuracy    <       0.00000540 Ry

     iteration #  7     ecut=    90.00 Ry     beta=0.70
     Davidson diagonalization with overlap
     ethr =  2.45E-08,  avg # of iterations =  1.0

     total cpu time spent up to now is       78.7 secs

     total energy              =    -426.03952309 Ry
     Harris-Foulkes estimate   =    -426.03952324 Ry
     estimated scf accuracy    <       0.00000076 Ry

     iteration #  8     ecut=    90.00 Ry     beta=0.70
     Davidson diagonalization with overlap
     ethr =  3.45E-09,  avg # of iterations =  2.0

     total cpu time spent up to now is       86.5 secs

     End of self-consistent calculation

          k = 0.0000 0.0000 0.0000 (  3839 PWs)   bands (ev):

     0.6731   3.9827   3.9827   3.9827   4.0050   4.0050   5.0378   5.0378
     5.0378   5.6619   5.6619  16.3870  16.3870  16.3870  17.3293

          k =-0.1000 0.1000-0.1000 (  3779 PWs)   bands (ev):

     0.8262   3.9111   3.9111   3.9859   4.1007   4.1007   5.0065   5.0331
     5.0331   5.6625   5.6625  14.3052  15.7321  15.7321  17.8121

          k =-0.2000 0.2000-0.2000 (  3810 PWs)   bands (ev):

     1.2733   3.8740   3.8740   3.9999   4.1890   4.1890   4.9295   5.0396
     5.0396   5.6588   5.6588  11.7799  14.9265  14.9265  17.6354

          k =-0.3000 0.3000-0.3000 (  3819 PWs)   bands (ev):

     1.9608   3.8863   3.8863   4.0287   4.2097   4.2097   4.8730   5.0951
     5.0951   5.6400   5.6400   9.4882  14.3019  14.3019  17.5333

          k =-0.4000 0.4000-0.4000 (  3825 PWs)   bands (ev):

     2.7101   3.9397   3.9397   4.0447   4.1585   4.1585   5.0215   5.1878
     5.1878   5.6039   5.6039   7.5595  13.9077  13.9077  17.5972

          k = 0.5000-0.5000 0.5000 (  3828 PWs)   bands (ev):

     3.0727   3.9889   3.9889   4.0298   4.1055   4.1055   5.2392   5.2392
     5.4368   5.5796   5.5796   6.4523  13.7725  13.7725  17.7249

          k = 0.0000 0.2000 0.0000 (  3803 PWs)   bands (ev):

     0.8776   3.8394   3.9913   3.9913   4.0495   4.1579   4.9156   5.0745
     5.0745   5.6256   5.6936  14.8156  14.8156  15.4019  16.5528

          k =-0.1000 0.3000-0.1000 (  3813 PWs)   bands (ev):

     1.2282   3.7850   3.9672   3.9997   4.1345   4.2454   4.8061   5.0947
     5.1152   5.5910   5.7132  12.6437  14.0041  14.8910  16.8476

          k =-0.2000 0.4000-0.2000 (  3818 PWs)   bands (ev):

     1.8414   3.7768   3.9682   4.0135   4.1799   4.2983   4.7419   5.1144
     5.1788   5.5589   5.7168  10.2953  13.4394  14.1118  16.8475

          k =-0.3000 0.5000-0.3000 (  3814 PWs)   bands (ev):

     2.5935   3.8106   3.9931   4.0270   4.1654   4.2697   4.8092   5.2232
     5.2418   5.5430   5.6954   8.2332  13.1810  13.3753  16.6084

          k = 0.6000-0.4000 0.6000 (  3810 PWs)   bands (ev):

     3.1286   3.8570   3.9758   4.0327   4.1760   4.1906   5.0286   5.2176
     5.5779   5.5851   5.6836   6.6617  12.8231  13.2599  16.6298

          k = 0.5000-0.3000 0.5000 (  3817 PWs)   bands (ev):

     3.0030   3.9007   3.9132   4.0771   4.1059   4.2471   5.0645   5.1129
     5.4580   5.5669   5.6538   7.1108  12.5440  13.6709  16.9427

          k = 0.4000-0.2000 0.4000 (  3820 PWs)   bands (ev):

     2.3385   3.8342   3.9477   4.0253   4.1473   4.3049   4.8719   5.0041
     5.2934   5.5452   5.6992   8.8911  12.5771  14.3642  17.5377

          k = 0.3000-0.1000 0.3000 (  3811 PWs)   bands (ev):

     1.6098   3.8083   3.9360   3.9998   4.1639   4.2897   4.8583   4.9589
     5.1989   5.5784   5.7109  11.0660  12.9170  15.2396  18.2669

          k = 0.2000 0.0000 0.2000 (  3809 PWs)   bands (ev):

     1.0780   3.8350   3.9298   3.9952   4.1224   4.2030   4.9297   4.9847
     5.1153   5.6220   5.6950  13.3903  13.6238  16.0213  17.7630

          k = 0.0000 0.4000 0.0000 (  3815 PWs)   bands (ev):

     1.4798   3.7108   4.0089   4.0089   4.1775   4.3180   4.6277   5.1895
     5.1895   5.5188   5.7463  13.1345  13.1345  13.5048  15.5940

          k =-0.1000 0.5000-0.1000 (  3829 PWs)   bands (ev):

     2.0030   3.6812   4.0105   4.0121   4.2538   4.3830   4.5019   5.2574
     5.2662   5.4612   5.7702  11.1827  12.5079  12.8464  15.7295

          k =-0.2000 0.6000-0.2000 (  3813 PWs)   bands (ev):

     2.7040   3.6960   3.9932   4.0098   4.2948   4.3499   4.5570   5.2649
     5.3715   5.4937   5.7876   9.1028  11.9451  12.2107  15.6530

          k = 0.7000-0.3000 0.7000 (  3826 PWs)   bands (ev):

     3.3035   3.7251   3.9758   3.9790   4.2797   4.3342   4.7641   5.1606
     5.6000   5.6470   5.9009   7.3161  11.1711  12.2912  15.6942

          k = 0.6000-0.2000 0.6000 (  3826 PWs)   bands (ev):

     3.3728   3.7936   3.9058   4.0200   4.1767   4.3966   4.9739   5.0228
     5.6447   5.6868   6.0049   6.9029  10.6659  12.7486  15.9850

          k = 0.5000-0.1000 0.5000 (  3824 PWs)   bands (ev):

     2.8918   3.8348   3.8864   4.0680   4.0951   4.4400   4.9099   4.9631
     5.4617   5.5451   5.7322   8.5476  10.4949  13.5254  16.5371

          k = 0.4000 0.0000 0.4000 (  3827 PWs)   bands (ev):

     2.1953   3.7960   3.9554   3.9911   4.1485   4.3961   4.8523   4.8950
     5.3716   5.4896   5.7380  10.4284  10.8171  14.4901  17.3562

          k = 0.0000 0.6000 0.0000 (  3832 PWs)   bands (ev):

     2.4304   3.6324   4.0210   4.0210   4.2854   4.3738   4.4535   5.3490
     5.3772   5.3772   5.8213  11.1894  11.7836  11.7836  14.9586

          k =-0.1000 0.7000-0.1000 (  3834 PWs)   bands (ev):

     3.0451   3.6356   3.9785   4.0186   4.2134   4.4665   4.4957   5.2269
     5.4941   5.5052   5.9001   9.7437  10.8273  11.3874  15.0509

          k = 0.8000-0.2000 0.8000 (  3839 PWs)   bands (ev):

     3.5960   3.6626   3.9077   3.9942   4.2760   4.5320   4.5695   5.0824
     5.6241   5.6808   6.1279   8.1916   9.7503  11.3913  15.0872

          k = 0.7000-0.1000 0.7000 (  3829 PWs)   bands (ev):

     3.6285   3.8112   3.9290   3.9416   4.2302   4.5871   4.7916   4.9280
     5.7019   5.7596   6.6595   7.1254   9.0115  11.8039  15.3217

          k = 0.6000-0.0000 0.6000 (  3831 PWs)   bands (ev):

     3.4078   3.8306   3.8787   4.0112   4.1385   4.5705   4.8509   4.9652
     5.6918   5.7351   5.8148   8.3055   8.8492  12.5603  15.7981

          k = 0.0000 0.8000 0.0000 (  3820 PWs)   bands (ev):

     3.5499   3.6359   3.9736   4.0242   4.0242   4.5109   4.6157   5.1286
     5.5777   5.5777   6.0843   8.8891  10.8726  10.8726  14.6493

          k = 0.9000-0.1000 0.9000 (  3834 PWs)   bands (ev):

     3.6762   3.8267   3.9416   4.0152   4.1769   4.4773   4.7239   4.9900
     5.6541   5.6787   6.4660   7.9044   9.9252  10.7671  14.7456

          k = 0.8000 0.0000 0.8000 (  3841 PWs)   bands (ev):

     3.6667   3.8296   3.9797   3.9849   4.2753   4.5841   4.7645   4.8609
     5.6951   5.7685   7.1296   7.2427   8.6699  11.0991  14.9190

          k = 0.0000-1.0000 0.0000 (  3860 PWs)   bands (ev):

     3.7470   3.7470   4.0241   4.0241   4.3234   4.3234   4.8763   4.8763
     5.6698   5.6698   7.0405   7.0406  10.5418  10.5418  14.6400

          k =-0.2000 0.4000 0.0000 (  3812 PWs)   bands (ev):

     1.6650   3.7432   3.9905   3.9963   4.1768   4.3309   4.6861   5.0901
     5.2384   5.5298   5.7385  11.8229  12.1514  14.4512  16.9425

          k =-0.3000 0.5000-0.1000 (  3833 PWs)   bands (ev):

     2.3282   3.7478   3.9646   4.0280   4.1887   4.3843   4.6601   5.1122
     5.3555   5.4857   5.7492   9.7419  11.6034  13.5657  17.0009

          k = 0.6000-0.4000 0.8000 (  3822 PWs)   bands (ev):

     3.0247   3.7824   3.9156   4.0673   4.1826   4.3497   4.8004   5.1595
     5.4910   5.5642   5.7403   7.8167  11.4638  12.7784  16.8252

          k = 0.5000-0.3000 0.7000 (  3822 PWs)   bands (ev):

     3.3468   3.7905   3.8893   4.0626   4.2174   4.2988   4.9555   5.1053
     5.6347   5.6590   6.1709   6.4779  11.4851  12.4320  16.7749

          k =-0.2000 0.6000 0.0000 (  3829 PWs)   bands (ev):

     2.5763   3.6660   3.9700   4.0359   4.3221   4.3964   4.4558   5.2544
     5.4224   5.4282   5.8088  10.4016  10.9689  12.1611  16.1718

          k = 0.7000-0.3000 0.9000 (  3830 PWs)   bands (ev):

     3.2253   3.6882   3.8993   4.0495   4.3434   4.4010   4.5605   5.1612
     5.5510   5.5877   5.8786   8.7058  10.4143  11.4203  16.2714

          k = 0.6000-0.2000 0.8000 (  3836 PWs)   bands (ev):

     3.6041   3.7075   3.8607   4.0459   4.2996   4.4461   4.7699   5.0180
     5.6742   5.7294   6.3750   7.1216   9.9845  11.3041  16.4162

          k = 0.5000-0.1000 0.7000 (  3837 PWs)   bands (ev):

     3.4673   3.7797   3.8403   4.0664   4.2139   4.5022   4.7862   5.0213
     5.6721   5.7164   5.9924   7.6935   9.6357  11.7930  16.7923

          k = 0.4000 0.0000 0.6000 (  3826 PWs)   bands (ev):

     2.9608   3.7621   3.8882   4.0723   4.1767   4.4939   4.6603   5.1080
     5.4732   5.5521   5.7752   9.2642   9.7677  12.6265  17.3336

          k = 0.8000-0.2000 1.0000 (  3824 PWs)   bands (ev):

     3.5803   3.6545   3.8789   4.0410   4.2235   4.4930   4.5821   5.0973
     5.6145   5.6221   6.0939   8.8159  10.1856  10.5134  15.7527

          k = 0.7000-0.1000 0.9000 (  3831 PWs)   bands (ev):

     3.6763   3.7747   3.9123   4.0341   4.3324   4.5485   4.6664   4.9351
     5.7005   5.7496   6.6170   7.8201   9.0457  10.4463  15.9370

          k = 0.6000 0.0000 0.8000 (  3825 PWs)   bands (ev):

     3.6485   3.8009   3.8960   4.0318   4.2750   4.6668   4.7209   4.8637
     5.7287   5.7795   6.7028   7.6678   8.4237  10.9550  16.2728

          k =-0.2000-1.0000 0.0000 (  3842 PWs)   bands (ev):

     3.7301   3.7301   4.0220   4.0220   4.3834   4.3834   4.8406   4.8407
     5.7083   5.7083   7.1260   7.1261   9.9609   9.9609  15.6689

          k = 0.6000-0.2000 1.0000 (  3829 PWs)   bands (ev):

     3.6310   3.7115   3.8445   4.0666   4.3815   4.5255   4.5928   5.0015
     5.7076   5.7133   6.2137   8.3339   9.1263  10.4521  17.7412

          k = 0.5000-0.1000 0.9000 (  3822 PWs)   bands (ev):

     3.6962   3.7215   3.9090   4.0566   4.4029   4.5509   4.7158   4.8629
     5.7429   5.7759   6.8722   7.4474   8.9736  10.0074  17.8232

          k =-0.4000-1.0000 0.0000 (  3826 PWs)   bands (ev):

     3.7072   3.7072   4.0173   4.0173   4.5005   4.5006   4.7613   4.7613
     5.7681   5.7681   7.3364   7.3364   9.1613   9.1613  17.8379

     the Fermi energy is     6.8630 ev

!    total energy              =    -426.03952316 Ry
     Harris-Foulkes estimate   =    -426.03952319 Ry
     estimated scf accuracy    <       0.00000003 Ry

     total all-electron energy =     -6619.799060 Ry

     The total energy is the sum of the following terms:

     one-electron contribution =    -116.84297313 Ry
     hartree contribution      =      57.88400696 Ry
     xc contribution           =     -73.47396025 Ry
     ewald contribution        =    -127.80442418 Ry
     one-center paw contrib.   =    -165.80211831 Ry
     smearing contrib. (-TS)   =      -0.00005425 Ry

     convergence has been achieved in   8 iterations

     Writing output data file Cu.save

     init_run     :      4.37s CPU      4.53s WALL (       1 calls)
     electrons    :     79.40s CPU     81.10s WALL (       1 calls)

     Called by init_run:
     wfcinit      :      2.97s CPU      3.06s WALL (       1 calls)
     potinit      :      0.42s CPU      0.44s WALL (       1 calls)

     Called by electrons:
     c_bands      :     63.22s CPU     64.54s WALL (       9 calls)
     sum_band     :     11.49s CPU     11.73s WALL (       9 calls)
     v_of_rho     :      0.44s CPU      0.44s WALL (       9 calls)
     newd         :      0.90s CPU      0.91s WALL (       9 calls)
     mix_rho      :      0.52s CPU      0.52s WALL (       9 calls)

     Called by c_bands:
     init_us_2    :      1.31s CPU      1.38s WALL (     893 calls)
     cegterg      :     59.82s CPU     60.94s WALL (     423 calls)

     Called by *egterg:
     h_psi        :     53.83s CPU     54.83s WALL (    1542 calls)
     s_psi        :      1.38s CPU      1.39s WALL (    1542 calls)
     g_psi        :      0.41s CPU      0.42s WALL (    1072 calls)
     cdiaghg      :      1.84s CPU      1.88s WALL (    1448 calls)

     Called by h_psi:
     add_vuspsi   :      1.41s CPU      1.42s WALL (    1542 calls)

     General routines
     calbec       :      1.93s CPU      1.95s WALL (    1965 calls)
     fft          :      0.21s CPU      0.21s WALL (     119 calls)
     fftw         :     53.45s CPU     54.62s WALL (   41677 calls)
     davcio       :      0.24s CPU      0.25s WALL (    1316 calls)

     Parallel routines
     fft_scatter  :     12.70s CPU     12.88s WALL (   41796 calls)

     PAW routines
     PAW_pot      :      3.24s CPU      3.36s WALL (       9 calls)
     PAW_ddot     :      0.48s CPU      0.48s WALL (      86 calls)
     PAW_symme    :      0.01s CPU      0.01s WALL (      18 calls)

     PWSCF        :  1m24.92s CPU     1m26.81s WALL


   This run was terminated on:  20:51: 3  11Jul2015            

=------------------------------------------------------------------------------=
   JOB DONE.
=------------------------------------------------------------------------------=
