
     Program PWSCF v.5.0.2 (svn rev. 9656) starts on 11Jul2015 at 20:30:49 

     This program is part of the open-source Quantum ESPRESSO suite
     for quantum simulation of materials; please cite
         "P. Giannozzi et al., J. Phys.:Condens. Matter 21 395502 (2009);
          URL http://www.quantum-espresso.org", 
     in publications or presentations arising from this work. More details at
     http://www.quantum-espresso.org/quote.php

     Parallel version (MPI), running on     4 processors
     R & G space division:  proc/nbgrp/npool/nimage =       4

     Current dimensions of program PWSCF are:
     Max number of different atomic species (ntypx) = 10
     Max number of k-points (npk) =  40000
     Max angular momentum in pseudopotentials (lmaxx) =  3
     Waiting for input...
     Reading input from standard input
               file Cu.pbe.UPF: wavefunction(s)  4S 3D renormalized

     Subspace diagonalization in iterative solution of the eigenvalue problem:
     a serial algorithm will be used


     Parallelization info
     --------------------
     sticks:   dense  smooth     PW     G-vecs:    dense   smooth      PW
     Min         250     250     75                 5217     5217     869
     Max         251     251     76                 5220     5220     872
     Sum        1003    1003    301                20875    20875    3479



     bravais-lattice index     =            2
     lattice parameter (alat)  =      10.2000  a.u.
     unit-cell volume          =     265.3020 (a.u.)^3
     number of atoms/cell      =            2
     number of atomic types    =            1
     number of electrons       =        22.00
     number of Kohn-Sham states=           15
     kinetic-energy cutoff     =      70.0000  Ry
     charge density cutoff     =     280.0000  Ry
     convergence threshold     =      1.0E-07
     mixing beta               =       0.7000
     number of iterations used =            8  plain     mixing
     Exchange-correlation      =  SLA  PW   PBX  PBC ( 1 4 3 4 0)
     EXX-fraction              =        0.00

     celldm(1)=  10.200000  celldm(2)=   0.000000  celldm(3)=   0.000000
     celldm(4)=   0.000000  celldm(5)=   0.000000  celldm(6)=   0.000000

     crystal axes: (cart. coord. in units of alat)
               a(1) = (  -0.500000   0.000000   0.500000 )  
               a(2) = (   0.000000   0.500000   0.500000 )  
               a(3) = (  -0.500000   0.500000   0.000000 )  

     reciprocal axes: (cart. coord. in units 2 pi/alat)
               b(1) = ( -1.000000 -1.000000  1.000000 )  
               b(2) = (  1.000000  1.000000  1.000000 )  
               b(3) = ( -1.000000  1.000000 -1.000000 )  


     PseudoPot. # 1 for Cu read from file:
     ./Cu.pbe.UPF
     MD5 check sum: 0c51aa2b3b25e0d1c3270f17c0a46a12
     Pseudo is Projector augmented-wave + core cor, Zval = 11.0
     Generated using "atomic" code by A. Dal Corso  v.5.0.99 svn rev. 10869
     Shape of augmentation charge: BESSEL
     Using radial grid of 1199 points,  6 beta functions with: 
                l(1) =   0
                l(2) =   0
                l(3) =   1
                l(4) =   1
                l(5) =   2
                l(6) =   2
     Q(r) pseudized with 0 coefficients 


     atomic species   valence    mass     pseudopotential
        Cu            11.00    63.54600     Cu( 1.00)

     48 Sym. Ops., with inversion, found (24 have fractional translation)



   Cartesian axes

     site n.     atom                  positions (alat units)
         1           Cu  tau(   1) = (   0.0000000   0.0000000   0.0000000  )
         2           Cu  tau(   2) = (   0.2500000   0.2500000   0.2500000  )

     number of k points=    47  gaussian smearing, width (Ry)=  0.0030
                       cart. coord. in units 2pi/alat
        k(    1) = (   0.0000000   0.0000000   0.0000000), wk =   0.0020000
        k(    2) = (  -0.1000000   0.1000000  -0.1000000), wk =   0.0160000
        k(    3) = (  -0.2000000   0.2000000  -0.2000000), wk =   0.0160000
        k(    4) = (  -0.3000000   0.3000000  -0.3000000), wk =   0.0160000
        k(    5) = (  -0.4000000   0.4000000  -0.4000000), wk =   0.0160000
        k(    6) = (   0.5000000  -0.5000000   0.5000000), wk =   0.0080000
        k(    7) = (   0.0000000   0.2000000   0.0000000), wk =   0.0120000
        k(    8) = (  -0.1000000   0.3000000  -0.1000000), wk =   0.0480000
        k(    9) = (  -0.2000000   0.4000000  -0.2000000), wk =   0.0480000
        k(   10) = (  -0.3000000   0.5000000  -0.3000000), wk =   0.0480000
        k(   11) = (   0.6000000  -0.4000000   0.6000000), wk =   0.0480000
        k(   12) = (   0.5000000  -0.3000000   0.5000000), wk =   0.0480000
        k(   13) = (   0.4000000  -0.2000000   0.4000000), wk =   0.0480000
        k(   14) = (   0.3000000  -0.1000000   0.3000000), wk =   0.0480000
        k(   15) = (   0.2000000   0.0000000   0.2000000), wk =   0.0240000
        k(   16) = (   0.0000000   0.4000000   0.0000000), wk =   0.0120000
        k(   17) = (  -0.1000000   0.5000000  -0.1000000), wk =   0.0480000
        k(   18) = (  -0.2000000   0.6000000  -0.2000000), wk =   0.0480000
        k(   19) = (   0.7000000  -0.3000000   0.7000000), wk =   0.0480000
        k(   20) = (   0.6000000  -0.2000000   0.6000000), wk =   0.0480000
        k(   21) = (   0.5000000  -0.1000000   0.5000000), wk =   0.0480000
        k(   22) = (   0.4000000   0.0000000   0.4000000), wk =   0.0240000
        k(   23) = (   0.0000000   0.6000000   0.0000000), wk =   0.0120000
        k(   24) = (  -0.1000000   0.7000000  -0.1000000), wk =   0.0480000
        k(   25) = (   0.8000000  -0.2000000   0.8000000), wk =   0.0480000
        k(   26) = (   0.7000000  -0.1000000   0.7000000), wk =   0.0480000
        k(   27) = (   0.6000000  -0.0000000   0.6000000), wk =   0.0240000
        k(   28) = (   0.0000000   0.8000000   0.0000000), wk =   0.0120000
        k(   29) = (   0.9000000  -0.1000000   0.9000000), wk =   0.0480000
        k(   30) = (   0.8000000   0.0000000   0.8000000), wk =   0.0240000
        k(   31) = (   0.0000000  -1.0000000   0.0000000), wk =   0.0060000
        k(   32) = (  -0.2000000   0.4000000   0.0000000), wk =   0.0480000
        k(   33) = (  -0.3000000   0.5000000  -0.1000000), wk =   0.0960000
        k(   34) = (   0.6000000  -0.4000000   0.8000000), wk =   0.0960000
        k(   35) = (   0.5000000  -0.3000000   0.7000000), wk =   0.0480000
        k(   36) = (  -0.2000000   0.6000000   0.0000000), wk =   0.0480000
        k(   37) = (   0.7000000  -0.3000000   0.9000000), wk =   0.0960000
        k(   38) = (   0.6000000  -0.2000000   0.8000000), wk =   0.0960000
        k(   39) = (   0.5000000  -0.1000000   0.7000000), wk =   0.0960000
        k(   40) = (   0.4000000   0.0000000   0.6000000), wk =   0.0480000
        k(   41) = (   0.8000000  -0.2000000   1.0000000), wk =   0.0480000
        k(   42) = (   0.7000000  -0.1000000   0.9000000), wk =   0.0960000
        k(   43) = (   0.6000000   0.0000000   0.8000000), wk =   0.0480000
        k(   44) = (  -0.2000000  -1.0000000   0.0000000), wk =   0.0240000
        k(   45) = (   0.6000000  -0.2000000   1.0000000), wk =   0.0480000
        k(   46) = (   0.5000000  -0.1000000   0.9000000), wk =   0.0480000
        k(   47) = (  -0.4000000  -1.0000000   0.0000000), wk =   0.0240000

     Dense  grid:    20875 G-vectors     FFT dimensions: (  40,  40,  40)

     Largest allocated arrays     est. size (Mb)     dimensions
        Kohn-Sham Wavefunctions         0.15 Mb     (    668,   15)
        NL pseudopotentials             0.37 Mb     (    668,   36)
        Each V/rho on FFT grid          0.24 Mb     (  16000)
        Each G-vector array             0.04 Mb     (   5220)
        G-vector shells                 0.00 Mb     (    247)
     Largest temporary arrays     est. size (Mb)     dimensions
        Auxiliary wavefunctions         0.61 Mb     (    668,   60)
        Each subspace H/S matrix        0.05 Mb     (  60,  60)
        Each <psi_i|beta_j> matrix      0.01 Mb     (     36,   15)
        Arrays for rho mixing           1.95 Mb     (  16000,   8)

     Check: negative/imaginary core charge=   -0.000072    0.000000

     Initial potential from superposition of free atoms

     starting charge   21.99954, renormalised to   22.00000
     Starting wfc are   18 randomized atomic wfcs
     Checking if some PAW data can be deallocated... 

     total cpu time spent up to now is        4.0 secs

     per-process dynamical memory:    13.3 Mb

     Self-consistent Calculation

     iteration #  1     ecut=    70.00 Ry     beta=0.70
     Davidson diagonalization with overlap
     ethr =  1.00E-02,  avg # of iterations =  3.6

     Threshold (ethr) on eigenvalues was too large:
     Diagonalizing with lowered threshold

     Davidson diagonalization with overlap
     ethr =  1.99E-05,  avg # of iterations =  4.6

     total cpu time spent up to now is       17.5 secs

     total energy              =    -426.04108804 Ry
     Harris-Foulkes estimate   =    -426.04133194 Ry
     estimated scf accuracy    <       0.00552710 Ry

     iteration #  2     ecut=    70.00 Ry     beta=0.70
     Davidson diagonalization with overlap
     ethr =  2.51E-05,  avg # of iterations =  2.0

     total cpu time spent up to now is       23.3 secs

     total energy              =    -426.03979490 Ry
     Harris-Foulkes estimate   =    -426.04276852 Ry
     estimated scf accuracy    <       0.00589280 Ry

     iteration #  3     ecut=    70.00 Ry     beta=0.70
     Davidson diagonalization with overlap
     ethr =  2.51E-05,  avg # of iterations =  2.1

     total cpu time spent up to now is       29.2 secs

     total energy              =    -426.04128274 Ry
     Harris-Foulkes estimate   =    -426.04228180 Ry
     estimated scf accuracy    <       0.00340112 Ry

     iteration #  4     ecut=    70.00 Ry     beta=0.70
     Davidson diagonalization with overlap
     ethr =  1.55E-05,  avg # of iterations =  1.2

     total cpu time spent up to now is       34.1 secs

     total energy              =    -426.04172593 Ry
     Harris-Foulkes estimate   =    -426.04172676 Ry
     estimated scf accuracy    <       0.00000398 Ry

     iteration #  5     ecut=    70.00 Ry     beta=0.70
     Davidson diagonalization with overlap
     ethr =  1.81E-08,  avg # of iterations =  3.9

     total cpu time spent up to now is       42.2 secs

     total energy              =    -426.04175850 Ry
     Harris-Foulkes estimate   =    -426.04175952 Ry
     estimated scf accuracy    <       0.00000761 Ry

     iteration #  6     ecut=    70.00 Ry     beta=0.70
     Davidson diagonalization with overlap
     ethr =  1.81E-08,  avg # of iterations =  1.0

     total cpu time spent up to now is       47.1 secs

     total energy              =    -426.04175837 Ry
     Harris-Foulkes estimate   =    -426.04175870 Ry
     estimated scf accuracy    <       0.00000273 Ry

     iteration #  7     ecut=    70.00 Ry     beta=0.70
     Davidson diagonalization with overlap
     ethr =  1.24E-08,  avg # of iterations =  1.0

     total cpu time spent up to now is       52.0 secs

     total energy              =    -426.04175855 Ry
     Harris-Foulkes estimate   =    -426.04175845 Ry
     estimated scf accuracy    <       0.00000089 Ry

     iteration #  8     ecut=    70.00 Ry     beta=0.70
     Davidson diagonalization with overlap
     ethr =  4.04E-09,  avg # of iterations =  1.0

     total cpu time spent up to now is       57.0 secs

     total energy              =    -426.04175842 Ry
     Harris-Foulkes estimate   =    -426.04175857 Ry
     estimated scf accuracy    <       0.00000161 Ry

     iteration #  9     ecut=    70.00 Ry     beta=0.70
     Davidson diagonalization with overlap
     ethr =  4.04E-09,  avg # of iterations =  1.0

     total cpu time spent up to now is       62.0 secs

     total energy              =    -426.04175824 Ry
     Harris-Foulkes estimate   =    -426.04175844 Ry
     estimated scf accuracy    <       0.00000083 Ry

     iteration # 10     ecut=    70.00 Ry     beta=0.70
     Davidson diagonalization with overlap
     ethr =  3.77E-09,  avg # of iterations =  1.1

     total cpu time spent up to now is       66.8 secs

     End of self-consistent calculation

          k = 0.0000 0.0000 0.0000 (  2685 PWs)   bands (ev):

     0.6920   3.9955   3.9955   3.9955   4.0178   4.0178   5.0508   5.0508
     5.0508   5.6755   5.6755  16.3972  16.3972  16.3972  17.3434

          k =-0.1000 0.1000-0.1000 (  2676 PWs)   bands (ev):

     0.8450   3.9240   3.9240   3.9987   4.1135   4.1135   5.0197   5.0461
     5.0461   5.6761   5.6761  14.3204  15.7433  15.7433  17.8395

          k =-0.2000 0.2000-0.2000 (  2635 PWs)   bands (ev):

     1.2915   3.8870   3.8870   4.0126   4.2017   4.2017   4.9437   5.0527
     5.0527   5.6724   5.6724  11.7973  14.9371  14.9371  17.6686

          k =-0.3000 0.3000-0.3000 (  2635 PWs)   bands (ev):

     1.9777   3.8993   3.8993   4.0411   4.2225   4.2225   4.8893   5.1082
     5.1082   5.6535   5.6535   9.5064  14.3116  14.3116  17.5673

          k =-0.4000 0.4000-0.4000 (  2599 PWs)   bands (ev):

     2.7243   3.9526   3.9526   4.0572   4.1715   4.1715   5.0421   5.2011
     5.2011   5.6174   5.6174   7.5769  13.9165  13.9165  17.6283

          k = 0.5000-0.5000 0.5000 (  2608 PWs)   bands (ev):

     3.0842   4.0016   4.0016   4.0429   4.1187   4.1187   5.2525   5.2525
     5.4646   5.5929   5.5929   6.4648  13.7810  13.7810  17.7470

          k = 0.0000 0.2000 0.0000 (  2669 PWs)   bands (ev):

     0.8963   3.8523   4.0041   4.0041   4.0622   4.1706   4.9288   5.0875
     5.0875   5.6392   5.7072  14.8286  14.8286  15.4113  16.5799

          k =-0.1000 0.3000-0.1000 (  2637 PWs)   bands (ev):

     1.2465   3.7981   3.9800   4.0125   4.1472   4.2581   4.8196   5.1080
     5.1284   5.6046   5.7269  12.6596  14.0173  14.9015  16.8740

          k =-0.2000 0.4000-0.2000 (  2633 PWs)   bands (ev):

     1.8588   3.7899   3.9810   4.0261   4.1927   4.3111   4.7563   5.1283
     5.1921   5.5723   5.7305  10.3128  13.4521  14.1222  16.8872

          k =-0.3000 0.5000-0.3000 (  2629 PWs)   bands (ev):

     2.6086   3.8238   4.0058   4.0394   4.1785   4.2825   4.8254   5.2384
     5.2551   5.5564   5.7091   8.2511  13.1928  13.3862  16.6528

          k = 0.6000-0.4000 0.6000 (  2612 PWs)   bands (ev):

     3.1404   3.8706   3.9886   4.0455   4.1892   4.2035   5.0445   5.2309
     5.5955   5.5985   5.7013   6.6765  12.8351  13.2707  16.6752

          k = 0.5000-0.3000 0.5000 (  2611 PWs)   bands (ev):

     3.0159   3.9136   3.9265   4.0895   4.1192   4.2601   5.0819   5.1262
     5.4756   5.5805   5.6673   7.1275  12.5572  13.6805  16.9882

          k = 0.4000-0.2000 0.4000 (  2627 PWs)   bands (ev):

     2.3546   3.8472   3.9606   4.0379   4.1601   4.3178   4.8885   5.0172
     5.3072   5.5587   5.7127   8.9090  12.5915  14.3726  17.5830

          k = 0.3000-0.1000 0.3000 (  2626 PWs)   bands (ev):

     1.6276   3.8213   3.9490   4.0124   4.1767   4.3025   4.8729   4.9720
     5.2124   5.5920   5.7245  11.0832  12.9326  15.2471  18.2835

          k = 0.2000 0.0000 0.2000 (  2635 PWs)   bands (ev):

     1.0965   3.8479   3.9427   4.0080   4.1351   4.2157   4.9434   4.9977
     5.1285   5.6356   5.7086  13.4036  13.6418  16.0286  17.7770

          k = 0.0000 0.4000 0.0000 (  2613 PWs)   bands (ev):

     1.4979   3.7241   4.0216   4.0216   4.1903   4.3307   4.6413   5.2028
     5.2028   5.5324   5.7601  13.1486  13.1486  13.5113  15.6277

          k =-0.1000 0.5000-0.1000 (  2630 PWs)   bands (ev):

     2.0203   3.6946   4.0232   4.0248   4.2667   4.3957   4.5159   5.2710
     5.2796   5.4747   5.7841  11.1971  12.5222  12.8585  15.7667

          k =-0.2000 0.6000-0.2000 (  2628 PWs)   bands (ev):

     2.7197   3.7095   4.0057   4.0225   4.3079   4.3631   4.5713   5.2783
     5.3860   5.5071   5.8017   9.1195  11.9600  12.2246  15.6967

          k = 0.7000-0.3000 0.7000 (  2626 PWs)   bands (ev):

     3.3160   3.7390   3.9885   3.9919   4.2927   4.3473   4.7791   5.1739
     5.6135   5.6617   5.9174   7.3336  11.1874  12.3044  15.7386

          k = 0.6000-0.2000 0.6000 (  2605 PWs)   bands (ev):

     3.3849   3.8072   3.9186   4.0331   4.1896   4.4098   4.9887   5.0360
     5.6588   5.7003   6.0234   6.9202  10.6831  12.7608  16.0293

          k = 0.5000-0.1000 0.5000 (  2621 PWs)   bands (ev):

     2.9064   3.8477   3.8992   4.0812   4.1079   4.4530   4.9229   4.9792
     5.4765   5.5590   5.7457   8.5650  10.5129  13.5364  16.5811

          k = 0.4000 0.0000 0.4000 (  2628 PWs)   bands (ev):

     2.2121   3.8090   3.9681   4.0042   4.1613   4.4090   4.8677   4.9081
     5.3853   5.5033   5.7516  10.4419  10.8384  14.4992  17.3993

          k = 0.0000 0.6000 0.0000 (  2630 PWs)   bands (ev):

     2.4473   3.6461   4.0337   4.0337   4.2995   4.3867   4.4661   5.3624
     5.3906   5.3906   5.8357  11.1985  11.7984  11.7984  14.9955

          k =-0.1000 0.7000-0.1000 (  2615 PWs)   bands (ev):

     3.0606   3.6495   3.9913   4.0313   4.2277   4.4795   4.5083   5.2402
     5.5077   5.5186   5.9149   9.7547  10.8471  11.4022  15.0922

          k = 0.8000-0.2000 0.8000 (  2621 PWs)   bands (ev):

     3.6091   3.6768   3.9205   4.0069   4.2897   4.5451   4.5832   5.0957
     5.6376   5.6946   6.1435   8.2061   9.7721  11.4058  15.1303

          k = 0.7000-0.1000 0.7000 (  2609 PWs)   bands (ev):

     3.6422   3.8232   3.9423   3.9544   4.2433   4.6003   4.8057   4.9412
     5.7154   5.7735   6.6721   7.1459   9.0332  11.8177  15.3651

          k = 0.6000-0.0000 0.6000 (  2614 PWs)   bands (ev):

     3.4212   3.8430   3.8916   4.0247   4.1515   4.5837   4.8640   4.9797
     5.7059   5.7487   5.8312   8.3192   8.8731  12.5731  15.8418

          k = 0.0000 0.8000 0.0000 (  2630 PWs)   bands (ev):

     3.5643   3.6499   3.9884   4.0369   4.0369   4.5234   4.6287   5.1419
     5.5911   5.5911   6.0997   8.9024  10.8878  10.8878  14.6887

          k = 0.9000-0.1000 0.9000 (  2620 PWs)   bands (ev):

     3.6903   3.8410   3.9533   4.0278   4.1910   4.4901   4.7370   5.0033
     5.6676   5.6923   6.4817   7.9182   9.9458  10.7822  14.7878

          k = 0.8000 0.0000 0.8000 (  2606 PWs)   bands (ev):

     3.6810   3.8436   3.9909   3.9977   4.2883   4.5979   4.7777   4.8740
     5.7085   5.7822   7.1416   7.2578   8.6972  11.1138  14.9618

          k = 0.0000-1.0000 0.0000 (  2586 PWs)   bands (ev):

     3.7612   3.7612   4.0368   4.0368   4.3364   4.3364   4.8895   4.8895
     5.6833   5.6833   7.0563   7.0563  10.5572  10.5572  14.6822

          k =-0.2000 0.4000 0.0000 (  2634 PWs)   bands (ev):

     1.6828   3.7564   4.0034   4.0090   4.1896   4.3436   4.7000   5.1036
     5.2518   5.5433   5.7522  11.8357  12.1705  14.4611  16.9698

          k =-0.3000 0.5000-0.1000 (  2625 PWs)   bands (ev):

     2.3447   3.7611   3.9773   4.0407   4.2017   4.3972   4.6747   5.1261
     5.3693   5.4993   5.7629   9.7587  11.6197  13.5793  17.0406

          k = 0.6000-0.4000 0.8000 (  2625 PWs)   bands (ev):

     3.0385   3.7958   3.9284   4.0796   4.1959   4.3627   4.8156   5.1734
     5.5065   5.5779   5.7543   7.8343  11.4787  12.7943  16.8682

          k = 0.5000-0.3000 0.7000 (  2626 PWs)   bands (ev):

     3.3583   3.8047   3.9022   4.0749   4.2306   4.3119   4.9706   5.1185
     5.6484   5.6727   6.1946   6.4903  11.4989  12.4492  16.8188

          k =-0.2000 0.6000 0.0000 (  2628 PWs)   bands (ev):

     2.5926   3.6796   3.9827   4.0485   4.3351   4.4108   4.4685   5.2679
     5.4361   5.4418   5.8230  10.4123  10.9882  12.1788  16.2037

          k = 0.7000-0.3000 0.9000 (  2627 PWs)   bands (ev):

     3.2395   3.7020   3.9120   4.0619   4.3566   4.4149   4.5742   5.1746
     5.5650   5.6015   5.8934   8.7211  10.4310  11.4413  16.3101

          k = 0.6000-0.2000 0.8000 (  2623 PWs)   bands (ev):

     3.6161   3.7220   3.8733   4.0582   4.3129   4.4595   4.7842   5.0313
     5.6877   5.7433   6.3906   7.1403  10.0019  11.3243  16.4556

          k = 0.5000-0.1000 0.7000 (  2627 PWs)   bands (ev):

     3.4803   3.7932   3.8529   4.0785   4.2275   4.5154   4.8003   5.0349
     5.6859   5.7302   6.0086   7.7110   9.6545  11.8118  16.8323

          k = 0.4000 0.0000 0.6000 (  2623 PWs)   bands (ev):

     2.9756   3.7755   3.9008   4.0847   4.1901   4.5068   4.6748   5.1221
     5.4877   5.5660   5.7891   9.2770   9.7899  12.6438  17.3757

          k = 0.8000-0.2000 1.0000 (  2619 PWs)   bands (ev):

     3.5943   3.6685   3.8916   4.0535   4.2381   4.5058   4.5952   5.1106
     5.6281   5.6357   6.1094   8.8269  10.2051  10.5351  15.7878

          k = 0.7000-0.1000 0.9000 (  2614 PWs)   bands (ev):

     3.6905   3.7892   3.9230   4.0464   4.3462   4.5623   4.6795   4.9483
     5.7140   5.7633   6.6319   7.8323   9.0711  10.4666  15.9753

          k = 0.6000 0.0000 0.8000 (  2624 PWs)   bands (ev):

     3.6628   3.8148   3.9070   4.0438   4.2886   4.6800   4.7348   4.8770
     5.7422   5.7934   6.7162   7.6814   8.4509  10.9747  16.3114

          k =-0.2000-1.0000 0.0000 (  2616 PWs)   bands (ev):

     3.7443   3.7443   4.0340   4.0340   4.3968   4.3968   4.8538   4.8538
     5.7218   5.7218   7.1409   7.1409   9.9812   9.9812  15.7069

          k = 0.6000-0.2000 1.0000 (  2627 PWs)   bands (ev):

     3.6451   3.7254   3.8559   4.0786   4.3951   4.5400   4.6058   5.0149
     5.7211   5.7272   6.2292   8.3450   9.1499  10.4765  17.7816

          k = 0.5000-0.1000 0.9000 (  2624 PWs)   bands (ev):

     3.7107   3.7354   3.9198   4.0682   4.4167   4.5646   4.7295   4.8761
     5.7564   5.7897   6.8841   7.4649   8.9952  10.0329  17.8620

          k =-0.4000-1.0000 0.0000 (  2614 PWs)   bands (ev):

     3.7215   3.7215   4.0286   4.0286   4.5144   4.5144   4.7745   4.7745
     5.7817   5.7817   7.3482   7.3482   9.1878   9.1878  17.8733

     the Fermi energy is     6.8763 ev

!    total energy              =    -426.04175829 Ry
     Harris-Foulkes estimate   =    -426.04175831 Ry
     estimated scf accuracy    <       0.00000003 Ry

     total all-electron energy =     -6619.801295 Ry

     The total energy is the sum of the following terms:

     one-electron contribution =    -116.85893717 Ry
     hartree contribution      =      57.90437432 Ry
     xc contribution           =     -73.47848538 Ry
     ewald contribution        =    -127.80442419 Ry
     one-center paw contrib.   =    -165.80423387 Ry
     smearing contrib. (-TS)   =      -0.00005199 Ry

     convergence has been achieved in  10 iterations

     Writing output data file Cu.save

     init_run     :      3.03s CPU      3.18s WALL (       1 calls)
     electrons    :     61.06s CPU     62.75s WALL (       1 calls)

     Called by init_run:
     wfcinit      :      1.88s CPU      1.97s WALL (       1 calls)
     potinit      :      0.38s CPU      0.40s WALL (       1 calls)

     Called by electrons:
     c_bands      :     45.37s CPU     46.59s WALL (      11 calls)
     sum_band     :     10.27s CPU     10.53s WALL (      11 calls)
     v_of_rho     :      0.34s CPU      0.35s WALL (      11 calls)
     newd         :      0.71s CPU      0.72s WALL (      11 calls)
     mix_rho      :      0.93s CPU      0.93s WALL (      11 calls)

     Called by c_bands:
     init_us_2    :      1.05s CPU      1.09s WALL (    1081 calls)
     cegterg      :     42.60s CPU     43.72s WALL (     517 calls)

     Called by *egterg:
     h_psi        :     37.48s CPU     38.42s WALL (    1626 calls)
     s_psi        :      1.01s CPU      1.01s WALL (    1626 calls)
     g_psi        :      0.28s CPU      0.29s WALL (    1062 calls)
     cdiaghg      :      1.81s CPU      1.86s WALL (    1532 calls)

     Called by h_psi:
     add_vuspsi   :      1.01s CPU      1.04s WALL (    1626 calls)

     General routines
     calbec       :      1.62s CPU      1.63s WALL (    2143 calls)
     fft          :      0.16s CPU      0.17s WALL (     145 calls)
     fftw         :     39.11s CPU     40.26s WALL (   47795 calls)
     davcio       :      0.19s CPU      0.19s WALL (    1598 calls)

     Parallel routines
     fft_scatter  :      7.97s CPU      7.95s WALL (   47940 calls)

     PAW routines
     PAW_pot      :      3.79s CPU      3.96s WALL (      11 calls)
     PAW_ddot     :      0.88s CPU      0.89s WALL (     167 calls)
     PAW_symme    :      0.02s CPU      0.02s WALL (      22 calls)

     PWSCF        :  1m 5.20s CPU     1m 7.09s WALL


   This run was terminated on:  20:31:56  11Jul2015            

=------------------------------------------------------------------------------=
   JOB DONE.
=------------------------------------------------------------------------------=
