
     Program PWSCF v.5.0.2 (svn rev. 9656) starts on 11Jul2015 at 20:39:28 

     This program is part of the open-source Quantum ESPRESSO suite
     for quantum simulation of materials; please cite
         "P. Giannozzi et al., J. Phys.:Condens. Matter 21 395502 (2009);
          URL http://www.quantum-espresso.org", 
     in publications or presentations arising from this work. More details at
     http://www.quantum-espresso.org/quote.php

     Parallel version (MPI), running on     4 processors
     R & G space division:  proc/nbgrp/npool/nimage =       4

     Current dimensions of program PWSCF are:
     Max number of different atomic species (ntypx) = 10
     Max number of k-points (npk) =  40000
     Max angular momentum in pseudopotentials (lmaxx) =  3
     Waiting for input...
     Reading input from standard input
               file Cu.pbe.UPF: wavefunction(s)  4S 3D renormalized

     Subspace diagonalization in iterative solution of the eigenvalue problem:
     a serial algorithm will be used


     Parallelization info
     --------------------
     sticks:   dense  smooth     PW     G-vecs:    dense   smooth      PW
     Min         289     289     87                 6437     6437    1027
     Max         292     292     88                 6438     6438    1028
     Sum        1159    1159    349                25749    25749    4111



     bravais-lattice index     =            2
     lattice parameter (alat)  =      10.2000  a.u.
     unit-cell volume          =     265.3020 (a.u.)^3
     number of atoms/cell      =            2
     number of atomic types    =            1
     number of electrons       =        22.00
     number of Kohn-Sham states=           15
     kinetic-energy cutoff     =      80.0000  Ry
     charge density cutoff     =     320.0000  Ry
     convergence threshold     =      1.0E-07
     mixing beta               =       0.7000
     number of iterations used =            8  plain     mixing
     Exchange-correlation      =  SLA  PW   PBX  PBC ( 1 4 3 4 0)
     EXX-fraction              =        0.00

     celldm(1)=  10.200000  celldm(2)=   0.000000  celldm(3)=   0.000000
     celldm(4)=   0.000000  celldm(5)=   0.000000  celldm(6)=   0.000000

     crystal axes: (cart. coord. in units of alat)
               a(1) = (  -0.500000   0.000000   0.500000 )  
               a(2) = (   0.000000   0.500000   0.500000 )  
               a(3) = (  -0.500000   0.500000   0.000000 )  

     reciprocal axes: (cart. coord. in units 2 pi/alat)
               b(1) = ( -1.000000 -1.000000  1.000000 )  
               b(2) = (  1.000000  1.000000  1.000000 )  
               b(3) = ( -1.000000  1.000000 -1.000000 )  


     PseudoPot. # 1 for Cu read from file:
     ./Cu.pbe.UPF
     MD5 check sum: 0c51aa2b3b25e0d1c3270f17c0a46a12
     Pseudo is Projector augmented-wave + core cor, Zval = 11.0
     Generated using "atomic" code by A. Dal Corso  v.5.0.99 svn rev. 10869
     Shape of augmentation charge: BESSEL
     Using radial grid of 1199 points,  6 beta functions with: 
                l(1) =   0
                l(2) =   0
                l(3) =   1
                l(4) =   1
                l(5) =   2
                l(6) =   2
     Q(r) pseudized with 0 coefficients 


     atomic species   valence    mass     pseudopotential
        Cu            11.00    63.54600     Cu( 1.00)

     24 Sym. Ops. (no inversion) found
          (note: 24 additional sym.ops. were found but ignored
           their fractional translations are incommensurate with FFT grid)


   Cartesian axes

     site n.     atom                  positions (alat units)
         1           Cu  tau(   1) = (   0.0000000   0.0000000   0.0000000  )
         2           Cu  tau(   2) = (   0.2500000   0.2500000   0.2500000  )

     number of k points=    47  gaussian smearing, width (Ry)=  0.0030
                       cart. coord. in units 2pi/alat
        k(    1) = (   0.0000000   0.0000000   0.0000000), wk =   0.0020000
        k(    2) = (  -0.1000000   0.1000000  -0.1000000), wk =   0.0160000
        k(    3) = (  -0.2000000   0.2000000  -0.2000000), wk =   0.0160000
        k(    4) = (  -0.3000000   0.3000000  -0.3000000), wk =   0.0160000
        k(    5) = (  -0.4000000   0.4000000  -0.4000000), wk =   0.0160000
        k(    6) = (   0.5000000  -0.5000000   0.5000000), wk =   0.0080000
        k(    7) = (   0.0000000   0.2000000   0.0000000), wk =   0.0120000
        k(    8) = (  -0.1000000   0.3000000  -0.1000000), wk =   0.0480000
        k(    9) = (  -0.2000000   0.4000000  -0.2000000), wk =   0.0480000
        k(   10) = (  -0.3000000   0.5000000  -0.3000000), wk =   0.0480000
        k(   11) = (   0.6000000  -0.4000000   0.6000000), wk =   0.0480000
        k(   12) = (   0.5000000  -0.3000000   0.5000000), wk =   0.0480000
        k(   13) = (   0.4000000  -0.2000000   0.4000000), wk =   0.0480000
        k(   14) = (   0.3000000  -0.1000000   0.3000000), wk =   0.0480000
        k(   15) = (   0.2000000   0.0000000   0.2000000), wk =   0.0240000
        k(   16) = (   0.0000000   0.4000000   0.0000000), wk =   0.0120000
        k(   17) = (  -0.1000000   0.5000000  -0.1000000), wk =   0.0480000
        k(   18) = (  -0.2000000   0.6000000  -0.2000000), wk =   0.0480000
        k(   19) = (   0.7000000  -0.3000000   0.7000000), wk =   0.0480000
        k(   20) = (   0.6000000  -0.2000000   0.6000000), wk =   0.0480000
        k(   21) = (   0.5000000  -0.1000000   0.5000000), wk =   0.0480000
        k(   22) = (   0.4000000   0.0000000   0.4000000), wk =   0.0240000
        k(   23) = (   0.0000000   0.6000000   0.0000000), wk =   0.0120000
        k(   24) = (  -0.1000000   0.7000000  -0.1000000), wk =   0.0480000
        k(   25) = (   0.8000000  -0.2000000   0.8000000), wk =   0.0480000
        k(   26) = (   0.7000000  -0.1000000   0.7000000), wk =   0.0480000
        k(   27) = (   0.6000000  -0.0000000   0.6000000), wk =   0.0240000
        k(   28) = (   0.0000000   0.8000000   0.0000000), wk =   0.0120000
        k(   29) = (   0.9000000  -0.1000000   0.9000000), wk =   0.0480000
        k(   30) = (   0.8000000   0.0000000   0.8000000), wk =   0.0240000
        k(   31) = (   0.0000000  -1.0000000   0.0000000), wk =   0.0060000
        k(   32) = (  -0.2000000   0.4000000   0.0000000), wk =   0.0480000
        k(   33) = (  -0.3000000   0.5000000  -0.1000000), wk =   0.0960000
        k(   34) = (   0.6000000  -0.4000000   0.8000000), wk =   0.0960000
        k(   35) = (   0.5000000  -0.3000000   0.7000000), wk =   0.0480000
        k(   36) = (  -0.2000000   0.6000000   0.0000000), wk =   0.0480000
        k(   37) = (   0.7000000  -0.3000000   0.9000000), wk =   0.0960000
        k(   38) = (   0.6000000  -0.2000000   0.8000000), wk =   0.0960000
        k(   39) = (   0.5000000  -0.1000000   0.7000000), wk =   0.0960000
        k(   40) = (   0.4000000   0.0000000   0.6000000), wk =   0.0480000
        k(   41) = (   0.8000000  -0.2000000   1.0000000), wk =   0.0480000
        k(   42) = (   0.7000000  -0.1000000   0.9000000), wk =   0.0960000
        k(   43) = (   0.6000000   0.0000000   0.8000000), wk =   0.0480000
        k(   44) = (  -0.2000000  -1.0000000   0.0000000), wk =   0.0240000
        k(   45) = (   0.6000000  -0.2000000   1.0000000), wk =   0.0480000
        k(   46) = (   0.5000000  -0.1000000   0.9000000), wk =   0.0480000
        k(   47) = (  -0.4000000  -1.0000000   0.0000000), wk =   0.0240000

     Dense  grid:    25749 G-vectors     FFT dimensions: (  45,  45,  45)

     Largest allocated arrays     est. size (Mb)     dimensions
        Kohn-Sham Wavefunctions         0.19 Mb     (    819,   15)
        NL pseudopotentials             0.45 Mb     (    819,   36)
        Each V/rho on FFT grid          0.37 Mb     (  24300)
        Each G-vector array             0.05 Mb     (   6438)
        G-vector shells                 0.00 Mb     (    283)
     Largest temporary arrays     est. size (Mb)     dimensions
        Auxiliary wavefunctions         0.75 Mb     (    819,   60)
        Each subspace H/S matrix        0.05 Mb     (  60,  60)
        Each <psi_i|beta_j> matrix      0.01 Mb     (     36,   15)
        Arrays for rho mixing           2.97 Mb     (  24300,   8)

     Check: negative/imaginary core charge=   -0.000065    0.000000

     Initial potential from superposition of free atoms

     starting charge   21.99954, renormalised to   22.00000
     Starting wfc are   18 randomized atomic wfcs
     Checking if some PAW data can be deallocated... 

     total cpu time spent up to now is        5.1 secs

     per-process dynamical memory:    15.1 Mb

     Self-consistent Calculation

     iteration #  1     ecut=    80.00 Ry     beta=0.70
     Davidson diagonalization with overlap
     ethr =  1.00E-02,  avg # of iterations =  3.7

     Threshold (ethr) on eigenvalues was too large:
     Diagonalizing with lowered threshold

     Davidson diagonalization with overlap
     ethr =  1.04E-04,  avg # of iterations =  3.7

     total cpu time spent up to now is       22.0 secs

     total energy              =    -426.02801155 Ry
     Harris-Foulkes estimate   =    -426.04239988 Ry
     estimated scf accuracy    <       0.02157628 Ry

     iteration #  2     ecut=    80.00 Ry     beta=0.70
     Davidson diagonalization with overlap
     ethr =  9.81E-05,  avg # of iterations =  3.0

     total cpu time spent up to now is       32.2 secs

     total energy              =    -426.01203016 Ry
     Harris-Foulkes estimate   =    -426.07197708 Ry
     estimated scf accuracy    <       0.21415939 Ry

     iteration #  3     ecut=    80.00 Ry     beta=0.70
     Davidson diagonalization with overlap
     ethr =  9.81E-05,  avg # of iterations =  3.0

     total cpu time spent up to now is       41.6 secs

     total energy              =    -426.03897344 Ry
     Harris-Foulkes estimate   =    -426.04095827 Ry
     estimated scf accuracy    <       0.00412137 Ry

     iteration #  4     ecut=    80.00 Ry     beta=0.70
     Davidson diagonalization with overlap
     ethr =  1.87E-05,  avg # of iterations =  2.3

     total cpu time spent up to now is       50.3 secs

     total energy              =    -426.03996134 Ry
     Harris-Foulkes estimate   =    -426.04071027 Ry
     estimated scf accuracy    <       0.00260679 Ry

     iteration #  5     ecut=    80.00 Ry     beta=0.70
     Davidson diagonalization with overlap
     ethr =  1.18E-05,  avg # of iterations =  1.1

     total cpu time spent up to now is       57.1 secs

     total energy              =    -426.04027242 Ry
     Harris-Foulkes estimate   =    -426.04027716 Ry
     estimated scf accuracy    <       0.00001615 Ry

     iteration #  6     ecut=    80.00 Ry     beta=0.70
     Davidson diagonalization with overlap
     ethr =  7.34E-08,  avg # of iterations =  3.1

     total cpu time spent up to now is       67.2 secs

     total energy              =    -426.04029922 Ry
     Harris-Foulkes estimate   =    -426.04030039 Ry
     estimated scf accuracy    <       0.00000580 Ry

     iteration #  7     ecut=    80.00 Ry     beta=0.70
     Davidson diagonalization with overlap
     ethr =  2.64E-08,  avg # of iterations =  1.0

     total cpu time spent up to now is       74.2 secs

     total energy              =    -426.04029938 Ry
     Harris-Foulkes estimate   =    -426.04029956 Ry
     estimated scf accuracy    <       0.00000085 Ry

     iteration #  8     ecut=    80.00 Ry     beta=0.70
     Davidson diagonalization with overlap
     ethr =  3.86E-09,  avg # of iterations =  2.0

     total cpu time spent up to now is       81.5 secs

     End of self-consistent calculation

          k = 0.0000 0.0000 0.0000 (  3143 PWs)   bands (ev):

     0.6865   3.9923   3.9923   3.9923   4.0146   4.0146   5.0475   5.0475
     5.0475   5.6720   5.6720  16.3960  16.3960  16.3960  17.3393

          k =-0.1000 0.1000-0.1000 (  3191 PWs)   bands (ev):

     0.8396   3.9207   3.9207   3.9955   4.1103   4.1103   5.0163   5.0428
     5.0428   5.6726   5.6726  14.3166  15.7413  15.7413  17.8315

          k =-0.2000 0.2000-0.2000 (  3215 PWs)   bands (ev):

     1.2863   3.8837   3.8837   4.0094   4.1985   4.1985   4.9399   5.0494
     5.0494   5.6689   5.6689  11.7925  14.9353  14.9353  17.6587

          k =-0.3000 0.3000-0.3000 (  3212 PWs)   bands (ev):

     1.9731   3.8959   3.8959   4.0381   4.2192   4.2192   4.8846   5.1049
     5.1049   5.6500   5.6500   9.5012  14.3102  14.3102  17.5571

          k =-0.4000 0.4000-0.4000 (  3211 PWs)   bands (ev):

     2.7208   3.9493   3.9493   4.0541   4.1682   4.1682   5.0357   5.1977
     5.1977   5.6138   5.6138   7.5719  13.9155  13.9155  17.6192

          k = 0.5000-0.5000 0.5000 (  3214 PWs)   bands (ev):

     3.0818   3.9984   3.9984   4.0396   4.1153   4.1153   5.2491   5.2491
     5.4554   5.5894   5.5894   6.4617  13.7802  13.7802  17.7413

          k = 0.0000 0.2000 0.0000 (  3203 PWs)   bands (ev):

     0.8909   3.8490   4.0009   4.0009   4.0590   4.1674   4.9254   5.0842
     5.0842   5.6357   5.7037  14.8256  14.8256  15.4105  16.5712

          k =-0.1000 0.3000-0.1000 (  3211 PWs)   bands (ev):

     1.2413   3.7947   3.9768   4.0093   4.1440   4.2549   4.8161   5.1045
     5.1250   5.6011   5.7233  12.6554  14.0141  14.9001  16.8658

          k =-0.2000 0.4000-0.2000 (  3214 PWs)   bands (ev):

     1.8540   3.7865   3.9778   4.0230   4.1895   4.3079   4.7524   5.1246
     5.1886   5.5689   5.7270  10.3079  13.4492  14.1208  16.8735

          k =-0.3000 0.5000-0.3000 (  3197 PWs)   bands (ev):

     2.6047   3.8204   4.0026   4.0364   4.1751   4.2793   4.8207   5.2342
     5.2517   5.5529   5.7055   8.2460  13.1903  13.3844  16.6372

          k = 0.6000-0.4000 0.6000 (  3200 PWs)   bands (ev):

     3.1379   3.8670   3.9854   4.0423   4.1858   4.2002   5.0401   5.2275
     5.5904   5.5950   5.6961   6.6725  12.8328  13.2688  16.6592

          k = 0.5000-0.3000 0.5000 (  3204 PWs)   bands (ev):

     3.0129   3.9104   3.9230   4.0865   4.1157   4.2567   5.0768   5.1228
     5.4705   5.5769   5.6638   7.1228  12.5543  13.6791  16.9723

          k = 0.4000-0.2000 0.4000 (  3206 PWs)   bands (ev):

     2.3503   3.8439   3.9574   4.0348   4.1569   4.3145   4.8837   5.0138
     5.3036   5.5552   5.7092   8.9039  12.5880  14.3719  17.5674

          k = 0.3000-0.1000 0.3000 (  3215 PWs)   bands (ev):

     1.6226   3.8179   3.9457   4.0093   4.1735   4.2993   4.8689   4.9686
     5.2089   5.5885   5.7210  11.0785  12.9285  15.2469  18.2782

          k = 0.2000 0.0000 0.2000 (  3215 PWs)   bands (ev):

     1.0912   3.8446   3.9395   4.0048   4.1319   4.2125   4.9398   4.9944
     5.1251   5.6321   5.7051  13.4006  13.6367  16.0287  17.7730

          k = 0.0000 0.4000 0.0000 (  3207 PWs)   bands (ev):

     1.4928   3.7206   4.0184   4.0184   4.1871   4.3275   4.6378   5.1994
     5.1994   5.5289   5.7565  13.1449  13.1449  13.5117  15.6165

          k =-0.1000 0.5000-0.1000 (  3213 PWs)   bands (ev):

     2.0155   3.6911   4.0200   4.0216   4.2634   4.3926   4.5122   5.2674
     5.2761   5.4712   5.7805  11.1936  12.5184  12.8562  15.7541

          k =-0.2000 0.6000-0.2000 (  3209 PWs)   bands (ev):

     2.7156   3.7060   4.0026   4.0193   4.3045   4.3597   4.5675   5.2748
     5.3821   5.5036   5.7980   9.1149  11.9565  12.2211  15.6815

          k = 0.7000-0.3000 0.7000 (  3203 PWs)   bands (ev):

     3.3132   3.7353   3.9853   3.9887   4.2895   4.3440   4.7749   5.1705
     5.6099   5.6577   5.9128   7.3286  11.1832  12.3012  15.7231

          k = 0.6000-0.2000 0.6000 (  3200 PWs)   bands (ev):

     3.3822   3.8037   3.9154   4.0297   4.1864   4.4064   4.9847   5.0326
     5.6550   5.6967   6.0179   6.9153  10.6785  12.7582  16.0139

          k = 0.5000-0.1000 0.5000 (  3193 PWs)   bands (ev):

     2.9027   3.8444   3.8960   4.0779   4.1047   4.4497   4.9196   4.9746
     5.4725   5.5553   5.7422   8.5602  10.5079  13.5344  16.5659

          k = 0.4000 0.0000 0.4000 (  3194 PWs)   bands (ev):

     2.2075   3.8057   3.9649   4.0008   4.1581   4.4057   4.8634   4.9048
     5.3816   5.4998   5.7480  10.4388  10.8319  14.4982  17.3845

          k = 0.0000 0.6000 0.0000 (  3198 PWs)   bands (ev):

     2.4426   3.6425   4.0305   4.0305   4.2958   4.3835   4.4630   5.3590
     5.3870   5.3870   5.8319  11.1975  11.7944  11.7944  14.9831

          k =-0.1000 0.7000-0.1000 (  3200 PWs)   bands (ev):

     3.0565   3.6458   3.9881   4.0281   4.2239   4.4762   4.5052   5.2368
     5.5041   5.5151   5.9109   9.7527  10.8412  11.3982  15.0780

          k = 0.8000-0.2000 0.8000 (  3205 PWs)   bands (ev):

     3.6060   3.6730   3.9174   4.0037   4.2862   4.5417   4.5796   5.0923
     5.6340   5.6910   6.1393   8.2024   9.7655  11.4019  15.1154

          k = 0.7000-0.1000 0.7000 (  3207 PWs)   bands (ev):

     3.6387   3.8204   3.9389   3.9512   4.2400   4.5969   4.8019   4.9378
     5.7118   5.7698   6.6691   7.1397   9.0266  11.8142  15.3501

          k = 0.6000-0.0000 0.6000 (  3206 PWs)   bands (ev):

     3.4179   3.8400   3.8883   4.0212   4.1483   4.5803   4.8607   4.9758
     5.7021   5.7451   5.8266   8.3159   8.8656  12.5702  15.8267

          k = 0.0000 0.8000 0.0000 (  3218 PWs)   bands (ev):

     3.5607   3.6462   3.9844   4.0337   4.0337   4.5204   4.6254   5.1385
     5.5876   5.5876   6.0955   8.8995  10.8835  10.8835  14.6753

          k = 0.9000-0.1000 0.9000 (  3212 PWs)   bands (ev):

     3.6866   3.8372   3.9507   4.0247   4.1873   4.4869   4.7336   4.9999
     5.6640   5.6887   6.4775   7.9150   9.9394  10.7780  14.7733

          k = 0.8000 0.0000 0.8000 (  3216 PWs)   bands (ev):

     3.6772   3.8399   3.9884   3.9945   4.2851   4.5943   4.7743   4.8707
     5.7050   5.7785   7.1390   7.2539   8.6881  11.1099  14.9470

          k = 0.0000-1.0000 0.0000 (  3250 PWs)   bands (ev):

     3.7574   3.7574   4.0336   4.0336   4.3332   4.3332   4.8861   4.8861
     5.6797   5.6797   7.0521   7.0522  10.5529  10.5529  14.6674

          k =-0.2000 0.4000 0.0000 (  3216 PWs)   bands (ev):

     1.6778   3.7529   4.0001   4.0058   4.1864   4.3405   4.6963   5.1000
     5.2483   5.5399   5.7487  11.8329  12.1649  14.4598  16.9611

          k =-0.3000 0.5000-0.1000 (  3205 PWs)   bands (ev):

     2.3403   3.7576   3.9741   4.0376   4.1984   4.3939   4.6708   5.1224
     5.3657   5.4958   5.7593   9.7541  11.6153  13.5763  17.0270

          k = 0.6000-0.4000 0.8000 (  3206 PWs)   bands (ev):

     3.0351   3.7923   3.9252   4.0766   4.1924   4.3594   4.8114   5.1697
     5.5022   5.5743   5.7506   7.8293  11.4750  12.7902  16.8534

          k = 0.5000-0.3000 0.7000 (  3196 PWs)   bands (ev):

     3.3559   3.8009   3.8989   4.0719   4.2272   4.3086   4.9664   5.1151
     5.6447   5.6691   6.1871   6.4873  11.4957  12.4445  16.8037

          k =-0.2000 0.6000 0.0000 (  3206 PWs)   bands (ev):

     2.5882   3.6761   3.9795   4.0454   4.3318   4.4069   4.4653   5.2644
     5.4325   5.4382   5.8192  10.4104  10.9825  12.1740  16.1932

          k = 0.7000-0.3000 0.9000 (  3205 PWs)   bands (ev):

     3.2360   3.6984   3.9088   4.0589   4.3532   4.4113   4.5706   5.1711
     5.5613   5.5978   5.8894   8.7171  10.4265  11.4350  16.2970

          k = 0.6000-0.2000 0.8000 (  3206 PWs)   bands (ev):

     3.6134   3.7181   3.8702   4.0552   4.3095   4.4560   4.7804   5.0279
     5.6842   5.7396   6.3864   7.1348   9.9972  11.3182  16.4423

          k = 0.5000-0.1000 0.7000 (  3204 PWs)   bands (ev):

     3.4772   3.7897   3.8498   4.0756   4.2240   4.5120   4.7965   5.0313
     5.6822   5.7266   6.0041   7.7061   9.6491  11.8064  16.8188

          k = 0.4000 0.0000 0.6000 (  3201 PWs)   bands (ev):

     2.9718   3.7720   3.8977   4.0817   4.1866   4.5035   4.6709   5.1183
     5.4838   5.5623   5.7855   9.2742   9.7831  12.6391  17.3616

          k = 0.8000-0.2000 1.0000 (  3200 PWs)   bands (ev):

     3.5908   3.6648   3.8884   4.0504   4.2341   4.5026   4.5919   5.1072
     5.6245   5.6321   6.1052   8.8249  10.1992  10.5283  15.7760

          k = 0.7000-0.1000 0.9000 (  3209 PWs)   bands (ev):

     3.6867   3.7853   3.9208   4.0434   4.3426   4.5587   4.6762   4.9449
     5.7105   5.7597   6.6280   7.8296   9.0629  10.4605  15.9623

          k = 0.6000 0.0000 0.8000 (  3211 PWs)   bands (ev):

     3.6590   3.8111   3.9047   4.0410   4.2851   4.6766   4.7311   4.8736
     5.7386   5.7897   6.7129   7.6782   8.4420  10.9689  16.2984

          k =-0.2000-1.0000 0.0000 (  3218 PWs)   bands (ev):

     3.7405   3.7406   4.0311   4.0312   4.3934   4.3934   4.8504   4.8505
     5.7182   5.7182   7.1371   7.1372   9.9749   9.9751  15.6941

          k = 0.6000-0.2000 1.0000 (  3205 PWs)   bands (ev):

     3.6415   3.7217   3.8534   4.0758   4.3915   4.5361   4.6026   5.0115
     5.7175   5.7235   6.2250   8.3428   9.1424  10.4688  17.7683

          k = 0.5000-0.1000 0.9000 (  3204 PWs)   bands (ev):

     3.7068   3.7317   3.9175   4.0656   4.4131   4.5610   4.7259   4.8727
     5.7528   5.7861   6.8815   7.4600   8.9886  10.0247  17.8493

          k =-0.4000-1.0000 0.0000 (  3210 PWs)   bands (ev):

     3.7177   3.7177   4.0261   4.0261   4.5107   4.5108   4.7711   4.7711
     5.7781   5.7781   7.3457   7.3457   9.1789   9.1793  17.8619

     the Fermi energy is     6.8731 ev

!    total energy              =    -426.04029947 Ry
     Harris-Foulkes estimate   =    -426.04029949 Ry
     estimated scf accuracy    <       0.00000002 Ry

     total all-electron energy =     -6619.799836 Ry

     The total energy is the sum of the following terms:

     one-electron contribution =    -116.85299537 Ry
     hartree contribution      =      57.89599155 Ry
     xc contribution           =     -73.47614267 Ry
     ewald contribution        =    -127.80442418 Ry
     one-center paw contrib.   =    -165.80267585 Ry
     smearing contrib. (-TS)   =      -0.00005294 Ry

     convergence has been achieved in   8 iterations

     Writing output data file Cu.save

     init_run     :      4.11s CPU      4.28s WALL (       1 calls)
     electrons    :     74.66s CPU     76.34s WALL (       1 calls)

     Called by init_run:
     wfcinit      :      2.79s CPU      2.92s WALL (       1 calls)
     potinit      :      0.42s CPU      0.43s WALL (       1 calls)

     Called by electrons:
     c_bands      :     59.20s CPU     60.51s WALL (       9 calls)
     sum_band     :     10.94s CPU     11.20s WALL (       9 calls)
     v_of_rho     :      0.43s CPU      0.43s WALL (       9 calls)
     newd         :      0.74s CPU      0.75s WALL (       9 calls)
     mix_rho      :      0.51s CPU      0.53s WALL (       9 calls)

     Called by c_bands:
     init_us_2    :      1.08s CPU      1.12s WALL (     893 calls)
     cegterg      :     56.41s CPU     57.63s WALL (     423 calls)

     Called by *egterg:
     h_psi        :     51.70s CPU     52.86s WALL (    1548 calls)
     s_psi        :      1.17s CPU      1.17s WALL (    1548 calls)
     g_psi        :      0.32s CPU      0.33s WALL (    1078 calls)
     cdiaghg      :      1.68s CPU      1.70s WALL (    1454 calls)

     Called by h_psi:
     add_vuspsi   :      1.18s CPU      1.19s WALL (    1548 calls)

     General routines
     calbec       :      1.65s CPU      1.67s WALL (    1971 calls)
     fft          :      0.20s CPU      0.22s WALL (     119 calls)
     fftw         :     51.52s CPU     52.97s WALL (   41747 calls)
     davcio       :      0.21s CPU      0.21s WALL (    1316 calls)

     Parallel routines
     fft_scatter  :     12.49s CPU     12.65s WALL (   41866 calls)

     PAW routines
     PAW_pot      :      3.23s CPU      3.31s WALL (       9 calls)
     PAW_ddot     :      0.47s CPU      0.50s WALL (      86 calls)
     PAW_symme    :      0.01s CPU      0.01s WALL (      18 calls)

     PWSCF        :  1m19.91s CPU     1m21.81s WALL


   This run was terminated on:  20:40:50  11Jul2015            

=------------------------------------------------------------------------------=
   JOB DONE.
=------------------------------------------------------------------------------=
