
     Program PWSCF v.5.0.2 (svn rev. 9656) starts on 12Jul2015 at  1:33:48 

     This program is part of the open-source Quantum ESPRESSO suite
     for quantum simulation of materials; please cite
         "P. Giannozzi et al., J. Phys.:Condens. Matter 21 395502 (2009);
          URL http://www.quantum-espresso.org", 
     in publications or presentations arising from this work. More details at
     http://www.quantum-espresso.org/quote.php

     Parallel version (MPI), running on     4 processors
     R & G space division:  proc/nbgrp/npool/nimage =       4

     Current dimensions of program PWSCF are:
     Max number of different atomic species (ntypx) = 10
     Max number of k-points (npk) =  40000
     Max angular momentum in pseudopotentials (lmaxx) =  3
     Waiting for input...
     Reading input from standard input
               file Al.pbe-n-kjpaw_psl.0.1.UPF: wavefunction(s)  3S renormalized

     Subspace diagonalization in iterative solution of the eigenvalue problem:
     a serial algorithm will be used


     Parallelization info
     --------------------
     sticks:   dense  smooth     PW     G-vecs:    dense   smooth      PW
     Min         129     129     40                 1996     1996     362
     Max         130     130     41                 1999     1999     366
     Sum         517     517    163                 7991     7991    1459



     bravais-lattice index     =            2
     lattice parameter (alat)  =       8.0000  a.u.
     unit-cell volume          =     128.0000 (a.u.)^3
     number of atoms/cell      =            1
     number of atomic types    =            1
     number of electrons       =         3.00
     number of Kohn-Sham states=            6
     kinetic-energy cutoff     =      60.0000  Ry
     charge density cutoff     =     240.0000  Ry
     convergence threshold     =      1.0E-07
     mixing beta               =       0.7000
     number of iterations used =            8  plain     mixing
     Exchange-correlation      =  SLA  PW   PBX  PBC ( 1 4 3 4 0)
     EXX-fraction              =        0.00

     celldm(1)=   8.000000  celldm(2)=   0.000000  celldm(3)=   0.000000
     celldm(4)=   0.000000  celldm(5)=   0.000000  celldm(6)=   0.000000

     crystal axes: (cart. coord. in units of alat)
               a(1) = (  -0.500000   0.000000   0.500000 )  
               a(2) = (   0.000000   0.500000   0.500000 )  
               a(3) = (  -0.500000   0.500000   0.000000 )  

     reciprocal axes: (cart. coord. in units 2 pi/alat)
               b(1) = ( -1.000000 -1.000000  1.000000 )  
               b(2) = (  1.000000  1.000000  1.000000 )  
               b(3) = ( -1.000000  1.000000 -1.000000 )  


     PseudoPot. # 1 for Al read from file:
     ./Al.pbe-n-kjpaw_psl.0.1.UPF
     MD5 check sum: 023d9faf819c76fc4df1f064efe7b7b2
     Pseudo is Projector augmented-wave + core cor, Zval =  3.0
     Generated using "atomic" code by A. Dal Corso  v.5.0.2 svn rev. 9415
     Shape of augmentation charge: PSQ
     Using radial grid of 1135 points,  4 beta functions with: 
                l(1) =   0
                l(2) =   0
                l(3) =   1
                l(4) =   1
     Q(r) pseudized with 0 coefficients 


     atomic species   valence    mass     pseudopotential
        Al             3.00    26.98154     Al( 1.00)

     48 Sym. Ops., with inversion, found



   Cartesian axes

     site n.     atom                  positions (alat units)
         1           Al  tau(   1) = (   0.0000000   0.0000000   0.0000000  )

     number of k points=    84  gaussian smearing, width (Ry)=  0.0030
                       cart. coord. in units 2pi/alat
        k(    1) = (   0.0000000   0.0000000   0.0000000), wk =   0.0009103
        k(    2) = (  -0.0769231   0.0769231  -0.0769231), wk =   0.0072827
        k(    3) = (  -0.1538462   0.1538462  -0.1538462), wk =   0.0072827
        k(    4) = (  -0.2307692   0.2307692  -0.2307692), wk =   0.0072827
        k(    5) = (  -0.3076923   0.3076923  -0.3076923), wk =   0.0072827
        k(    6) = (  -0.3846154   0.3846154  -0.3846154), wk =   0.0072827
        k(    7) = (  -0.4615385   0.4615385  -0.4615385), wk =   0.0072827
        k(    8) = (   0.0000000   0.1538462   0.0000000), wk =   0.0054620
        k(    9) = (  -0.0769231   0.2307692  -0.0769231), wk =   0.0218480
        k(   10) = (  -0.1538462   0.3076923  -0.1538462), wk =   0.0218480
        k(   11) = (  -0.2307692   0.3846154  -0.2307692), wk =   0.0218480
        k(   12) = (  -0.3076923   0.4615385  -0.3076923), wk =   0.0218480
        k(   13) = (  -0.3846154   0.5384615  -0.3846154), wk =   0.0218480
        k(   14) = (   0.5384615  -0.3846154   0.5384615), wk =   0.0218480
        k(   15) = (   0.4615385  -0.3076923   0.4615385), wk =   0.0218480
        k(   16) = (   0.3846154  -0.2307692   0.3846154), wk =   0.0218480
        k(   17) = (   0.3076923  -0.1538462   0.3076923), wk =   0.0218480
        k(   18) = (   0.2307692  -0.0769231   0.2307692), wk =   0.0218480
        k(   19) = (   0.1538462   0.0000000   0.1538462), wk =   0.0109240
        k(   20) = (   0.0000000   0.3076923   0.0000000), wk =   0.0054620
        k(   21) = (  -0.0769231   0.3846154  -0.0769231), wk =   0.0218480
        k(   22) = (  -0.1538462   0.4615385  -0.1538462), wk =   0.0218480
        k(   23) = (  -0.2307692   0.5384615  -0.2307692), wk =   0.0218480
        k(   24) = (  -0.3076923   0.6153846  -0.3076923), wk =   0.0218480
        k(   25) = (   0.6153846  -0.3076923   0.6153846), wk =   0.0218480
        k(   26) = (   0.5384615  -0.2307692   0.5384615), wk =   0.0218480
        k(   27) = (   0.4615385  -0.1538462   0.4615385), wk =   0.0218480
        k(   28) = (   0.3846154  -0.0769231   0.3846154), wk =   0.0218480
        k(   29) = (   0.3076923   0.0000000   0.3076923), wk =   0.0109240
        k(   30) = (   0.0000000   0.4615385   0.0000000), wk =   0.0054620
        k(   31) = (  -0.0769231   0.5384615  -0.0769231), wk =   0.0218480
        k(   32) = (  -0.1538462   0.6153846  -0.1538462), wk =   0.0218480
        k(   33) = (  -0.2307692   0.6923077  -0.2307692), wk =   0.0218480
        k(   34) = (   0.6923077  -0.2307692   0.6923077), wk =   0.0218480
        k(   35) = (   0.6153846  -0.1538462   0.6153846), wk =   0.0218480
        k(   36) = (   0.5384615  -0.0769231   0.5384615), wk =   0.0218480
        k(   37) = (   0.4615385   0.0000000   0.4615385), wk =   0.0109240
        k(   38) = (   0.0000000   0.6153846   0.0000000), wk =   0.0054620
        k(   39) = (  -0.0769231   0.6923077  -0.0769231), wk =   0.0218480
        k(   40) = (  -0.1538462   0.7692308  -0.1538462), wk =   0.0218480
        k(   41) = (   0.7692308  -0.1538462   0.7692308), wk =   0.0218480
        k(   42) = (   0.6923077  -0.0769231   0.6923077), wk =   0.0218480
        k(   43) = (   0.6153846   0.0000000   0.6153846), wk =   0.0109240
        k(   44) = (   0.0000000   0.7692308   0.0000000), wk =   0.0054620
        k(   45) = (  -0.0769231   0.8461538  -0.0769231), wk =   0.0218480
        k(   46) = (   0.8461538  -0.0769231   0.8461538), wk =   0.0218480
        k(   47) = (   0.7692308   0.0000000   0.7692308), wk =   0.0109240
        k(   48) = (   0.0000000   0.9230769   0.0000000), wk =   0.0054620
        k(   49) = (   0.9230769   0.0000000   0.9230769), wk =   0.0109240
        k(   50) = (  -0.1538462   0.3076923   0.0000000), wk =   0.0218480
        k(   51) = (  -0.2307692   0.3846154  -0.0769231), wk =   0.0436959
        k(   52) = (  -0.3076923   0.4615385  -0.1538462), wk =   0.0436959
        k(   53) = (  -0.3846154   0.5384615  -0.2307692), wk =   0.0436959
        k(   54) = (   0.5384615  -0.3846154   0.6923077), wk =   0.0436959
        k(   55) = (  -0.1538462   0.4615385   0.0000000), wk =   0.0218480
        k(   56) = (  -0.2307692   0.5384615  -0.0769231), wk =   0.0436959
        k(   57) = (  -0.3076923   0.6153846  -0.1538462), wk =   0.0436959
        k(   58) = (   0.6153846  -0.3076923   0.7692308), wk =   0.0436959
        k(   59) = (   0.5384615  -0.2307692   0.6923077), wk =   0.0436959
        k(   60) = (   0.4615385  -0.1538462   0.6153846), wk =   0.0436959
        k(   61) = (   0.3846154  -0.0769231   0.5384615), wk =   0.0436959
        k(   62) = (   0.3076923   0.0000000   0.4615385), wk =   0.0218480
        k(   63) = (  -0.1538462   0.6153846   0.0000000), wk =   0.0218480
        k(   64) = (  -0.2307692   0.6923077  -0.0769231), wk =   0.0436959
        k(   65) = (   0.6923077  -0.2307692   0.8461538), wk =   0.0436959
        k(   66) = (   0.6153846  -0.1538462   0.7692308), wk =   0.0436959
        k(   67) = (   0.5384615  -0.0769231   0.6923077), wk =   0.0436959
        k(   68) = (   0.4615385   0.0000000   0.6153846), wk =   0.0218480
        k(   69) = (  -0.1538462   0.7692308   0.0000000), wk =   0.0218480
        k(   70) = (   0.7692308  -0.1538462   0.9230769), wk =   0.0436959
        k(   71) = (   0.6923077  -0.0769231   0.8461538), wk =   0.0436959
        k(   72) = (   0.6153846   0.0000000   0.7692308), wk =   0.0218480
        k(   73) = (   0.8461538  -0.0769231   1.0000000), wk =   0.0218480
        k(   74) = (   0.7692308   0.0000000   0.9230769), wk =   0.0218480
        k(   75) = (  -0.3076923   0.6153846   0.0000000), wk =   0.0218480
        k(   76) = (   0.6153846  -0.3076923   0.9230769), wk =   0.0436959
        k(   77) = (   0.5384615  -0.2307692   0.8461538), wk =   0.0436959
        k(   78) = (   0.6923077  -0.2307692   1.0000000), wk =   0.0218480
        k(   79) = (   0.6153846  -0.1538462   0.9230769), wk =   0.0436959
        k(   80) = (   0.5384615  -0.0769231   0.8461538), wk =   0.0436959
        k(   81) = (   0.4615385   0.0000000   0.7692308), wk =   0.0218480
        k(   82) = (   0.6923077  -0.0769231   1.0000000), wk =   0.0218480
        k(   83) = (   0.6153846   0.0000000   0.9230769), wk =   0.0218480
        k(   84) = (   0.5384615  -0.0769231   1.0000000), wk =   0.0218480

     Dense  grid:     7991 G-vectors     FFT dimensions: (  27,  27,  27)

     Largest allocated arrays     est. size (Mb)     dimensions
        Kohn-Sham Wavefunctions         0.02 Mb     (    259,    6)
        NL pseudopotentials             0.03 Mb     (    259,    8)
        Each V/rho on FFT grid          0.08 Mb     (   5103)
        Each G-vector array             0.02 Mb     (   1998)
        G-vector shells                 0.00 Mb     (    131)
     Largest temporary arrays     est. size (Mb)     dimensions
        Auxiliary wavefunctions         0.09 Mb     (    259,   24)
        Each subspace H/S matrix        0.01 Mb     (  24,  24)
        Each <psi_i|beta_j> matrix      0.00 Mb     (      8,    6)
        Arrays for rho mixing           0.62 Mb     (   5103,   8)

     Check: negative/imaginary core charge=   -0.000001    0.000000

     Initial potential from superposition of free atoms

     starting charge    2.99771, renormalised to    3.00000
     Starting wfc are    4 randomized atomic wfcs
     Checking if some PAW data can be deallocated... 

     total cpu time spent up to now is        1.1 secs

     per-process dynamical memory:     9.1 Mb

     Self-consistent Calculation

     iteration #  1     ecut=    60.00 Ry     beta=0.70
     Davidson diagonalization with overlap
     ethr =  1.00E-02,  avg # of iterations =  4.8

     Threshold (ethr) on eigenvalues was too large:
     Diagonalizing with lowered threshold

     Davidson diagonalization with overlap
     ethr =  1.99E-04,  avg # of iterations =  2.2

     total cpu time spent up to now is        3.7 secs

     total energy              =     -39.49740333 Ry
     Harris-Foulkes estimate   =     -39.49887625 Ry
     estimated scf accuracy    <       0.00569467 Ry

     iteration #  2     ecut=    60.00 Ry     beta=0.70
     Davidson diagonalization with overlap
     ethr =  1.90E-04,  avg # of iterations =  1.0

     total cpu time spent up to now is        4.6 secs

     total energy              =     -39.49739308 Ry
     Harris-Foulkes estimate   =     -39.49749381 Ry
     estimated scf accuracy    <       0.00038595 Ry

     iteration #  3     ecut=    60.00 Ry     beta=0.70
     Davidson diagonalization with overlap
     ethr =  1.29E-05,  avg # of iterations =  2.1

     total cpu time spent up to now is        5.6 secs

     total energy              =     -39.49742417 Ry
     Harris-Foulkes estimate   =     -39.49742498 Ry
     estimated scf accuracy    <       0.00000203 Ry

     iteration #  4     ecut=    60.00 Ry     beta=0.70
     Davidson diagonalization with overlap
     ethr =  6.76E-08,  avg # of iterations =  2.9

     total cpu time spent up to now is        6.7 secs

     total energy              =     -39.49742567 Ry
     Harris-Foulkes estimate   =     -39.49742578 Ry
     estimated scf accuracy    <       0.00000026 Ry

     iteration #  5     ecut=    60.00 Ry     beta=0.70
     Davidson diagonalization with overlap
     ethr =  8.76E-09,  avg # of iterations =  1.2

     total cpu time spent up to now is        7.6 secs

     End of self-consistent calculation

          k = 0.0000 0.0000 0.0000 (   965 PWs)   bands (ev):

    -3.6695  18.4166  18.4166  18.8953  18.8953  18.8953

          k =-0.0769 0.0769-0.0769 (   974 PWs)   bands (ev):

    -3.5230  15.9881  17.6748  17.6748  19.8448  19.8531

          k =-0.1538 0.1538-0.1538 (   989 PWs)   bands (ev):

    -3.0841  13.1200  16.9741  16.9741  19.8218  20.9032

          k =-0.2308 0.2308-0.2308 (   995 PWs)   bands (ev):

    -2.3553  10.3609  16.5122  16.5122  19.6414  20.3309

          k =-0.3077 0.3077-0.3077 (   996 PWs)   bands (ev):

    -1.3406   7.7955  16.2938  16.2938  19.1666  19.1666

          k =-0.3846 0.3846-0.3846 (  1008 PWs)   bands (ev):

    -0.0452   5.4573  16.3080  16.3080  18.1731  18.1731

          k =-0.4615 0.4615-0.4615 (  1005 PWs)   bands (ev):

     1.5228   3.3656  16.4869  16.4869  17.4965  17.4965

          k = 0.0000 0.1538 0.0000 (   978 PWs)   bands (ev):

    -3.4741  16.6416  16.6416  17.2870  18.4272  20.9424

          k =-0.0769 0.2308-0.0769 (   986 PWs)   bands (ev):

    -3.1328  14.1482  15.8461  17.1215  18.7963  20.7746

          k =-0.1538 0.3077-0.1538 (   987 PWs)   bands (ev):

    -2.5008  11.3675  15.2999  16.6901  18.6635  20.6533

          k =-0.2308 0.3846-0.2308 (   995 PWs)   bands (ev):

    -1.5815   8.7426  15.0056  16.3807  17.4478  20.9916

          k =-0.3077 0.4615-0.3077 (  1005 PWs)   bands (ev):

    -0.3799   6.3309  14.9632  15.9900  16.6823  19.9993

          k =-0.3846 0.5385-0.3846 (  1007 PWs)   bands (ev):

     1.0973   4.1577  15.1704  15.2255  16.7796  19.1444

          k = 0.5385-0.3846 0.5385 (   999 PWs)   bands (ev):

     2.2262   2.8544  14.5990  15.6209  17.2491  18.5364

          k = 0.4615-0.3077 0.4615 (  1013 PWs)   bands (ev):

     0.5749   4.8540  14.2130  16.2938  17.9906  18.2045

          k = 0.3846-0.2308 0.3846 (  1000 PWs)   bands (ev):

    -0.8115   7.1079  14.0823  17.0997  18.2328  18.9797

          k = 0.3077-0.1538 0.3077 (   997 PWs)   bands (ev):

    -1.9196   9.5915  14.2114  17.7459  18.8759  20.1787

          k = 0.2308-0.0769 0.2308 (   984 PWs)   bands (ev):

    -2.7436  12.2657  14.6072  18.2638  19.7372  20.5150

          k = 0.1538 0.0000 0.1538 (   985 PWs)   bands (ev):

    -3.2790  14.8658  15.4475  18.7953  19.0616  20.3382

          k = 0.0000 0.3077 0.0000 (   994 PWs)   bands (ev):

    -2.8894  14.9601  14.9601  15.5786  17.3033  18.8499

          k =-0.0769 0.3846-0.0769 (   989 PWs)   bands (ev):

    -2.3552  12.5739  14.3260  15.6948  16.6742  18.1232

          k =-0.1538 0.4615-0.1538 (  1002 PWs)   bands (ev):

    -1.5331   9.9351  13.9460  15.1485  15.6578  19.5309

          k =-0.2308 0.5385-0.2308 (   999 PWs)   bands (ev):

    -0.4277   7.4672  13.8200  13.9700  15.5082  21.3602

          k =-0.3077 0.6154-0.3077 (  1010 PWs)   bands (ev):

     0.9551   5.2222  12.9670  13.9477  15.6643  21.1958

          k = 0.6154-0.3077 0.6154 (  1004 PWs)   bands (ev):

     2.6031   3.2268  12.2158  14.3276  16.0896  20.5065

          k = 0.5385-0.2308 0.5385 (  1008 PWs)   bands (ev):

     1.4769   4.5240  11.7292  14.9565  16.7798  20.0616

          k = 0.4615-0.1538 0.4615 (  1006 PWs)   bands (ev):

     0.0030   6.6816  11.5159  15.8262  17.7246  19.8719

          k = 0.3846-0.0769 0.3846 (  1002 PWs)   bands (ev):

    -1.1959   9.0473  11.5983  16.9146  18.9017  19.9358

          k = 0.3077 0.0000 0.3077 (   991 PWs)   bands (ev):

    -2.1131  11.3036  12.2626  18.1364  19.9268  20.2495

          k = 0.0000 0.4615 0.0000 (   998 PWs)   bands (ev):

    -1.9194  13.6047  13.6047  14.0976  14.8746  16.5506

          k =-0.0769 0.5385-0.0769 (  1006 PWs)   bands (ev):

    -1.1958  11.3295  13.1382  13.2985  14.4951  16.9171

          k =-0.1538 0.6154-0.1538 (  1005 PWs)   bands (ev):

    -0.1884   8.8498  11.9297  12.9268  14.5148  18.6029

          k =-0.2308 0.6923-0.2308 (  1015 PWs)   bands (ev):

     1.0968   6.5497  10.8110  12.9701  14.6294  20.7089

          k = 0.6923-0.2308 0.6923 (  1004 PWs)   bands (ev):

     2.6511   4.4793   9.9581  13.2677  14.9843  22.7307

          k = 0.6154-0.1538 0.6154 (   999 PWs)   bands (ev):

     2.6559   4.4647   9.3829  13.8182  15.6016  22.2124

          k = 0.5385-0.0769 0.5385 (  1005 PWs)   bands (ev):

     1.0983   6.4947   9.1150  14.6190  16.4782  21.9375

          k = 0.4615 0.0000 0.4615 (  1001 PWs)   bands (ev):

    -0.1881   8.4039   9.4818  15.6620  17.5954  22.0347

          k = 0.0000 0.6154 0.0000 (  1018 PWs)   bands (ev):

    -0.5714  11.5774  12.5856  12.5856  12.9601  15.5123

          k =-0.0769 0.6923-0.0769 (  1019 PWs)   bands (ev):

     0.3360  10.0947  10.4337  12.2884  13.5764  16.0838

          k =-0.1538 0.7692-0.1538 (  1011 PWs)   bands (ev):

     1.5203   8.1221   8.8726  12.2466  13.7847  17.9582

          k = 0.7692-0.1538 0.7692 (  1007 PWs)   bands (ev):

     2.9700   5.9968   7.9257  12.4597  14.0880  20.2673

          k = 0.6923-0.0769 0.6923 (   999 PWs)   bands (ev):

     4.1039   4.6536   7.2861  12.9272  14.6310  22.7341

          k = 0.6154 0.0000 0.6154 (  1003 PWs)   bands (ev):

     2.4684   6.2221   7.2919  13.6481  15.4317  24.1247

          k = 0.0000 0.7692 0.0000 (  1014 PWs)   bands (ev):

     1.1415   8.5076  11.9057  11.9057  12.1945  14.8191

          k =-0.0769 0.8462-0.0769 (  1001 PWs)   bands (ev):

     2.2192   7.1885   9.8934  11.7785  13.0214  15.5721

          k = 0.8462-0.0769 0.8462 (  1007 PWs)   bands (ev):

     3.5400   6.1703   7.7572  11.9064  13.4146  17.6286

          k = 0.7692 0.0000 0.7692 (  1011 PWs)   bands (ev):

     4.7676   5.7766   5.8233  12.2895  13.9051  20.1150

          k = 0.0000 0.9231 0.0000 (   998 PWs)   bands (ev):

     3.1681   5.7956  11.5658  11.5658  11.8100  14.4649

          k = 0.9231 0.0000 0.9231 (  1005 PWs)   bands (ev):

     4.0409   5.0237   9.7130  11.6085  12.8355  15.3993

          k =-0.1538 0.3077 0.0000 (   988 PWs)   bands (ev):

    -2.6950  13.0996  13.8540  17.7387  18.0872  19.4414

          k =-0.2308 0.3846-0.0769 (   997 PWs)   bands (ev):

    -1.9679  10.6652  13.1105  16.9140  17.8290  20.1217

          k =-0.3077 0.4615-0.1538 (  1001 PWs)   bands (ev):

    -0.9555   8.1426  12.8713  15.6766  17.6344  20.4137

          k =-0.3846 0.5385-0.2308 (  1009 PWs)   bands (ev):

     0.3369   5.8204  12.9113  14.6157  17.6732  19.4435

          k = 0.5385-0.3846 0.6923 (  1012 PWs)   bands (ev):

     1.9013   3.7369  13.2147  13.7959  17.9186  18.7036

          k =-0.1538 0.4615 0.0000 (   995 PWs)   bands (ev):

    -1.7261  11.6663  12.5008  15.0673  16.3781  17.8713

          k =-0.2308 0.5385-0.0769 (  1002 PWs)   bands (ev):

    -0.8112   9.4037  11.8989  13.6446  16.6272  19.1359

          k =-0.3077 0.6154-0.1538 (  1005 PWs)   bands (ev):

     0.3844   7.0458  11.8271  12.4544  16.6835  20.9310

          k = 0.6154-0.3077 0.7692 (  1001 PWs)   bands (ev):

     1.8540   4.8944  11.5152  12.0465  16.9355  20.7061

          k = 0.5385-0.2308 0.6923 (  1005 PWs)   bands (ev):

     2.9805   3.5944  10.8479  12.5299  17.4270  20.1066

          k = 0.4615-0.1538 0.6154 (  1005 PWs)   bands (ev):

     1.3350   5.5761  10.4556  13.2774  18.1494  19.7353

          k = 0.3846-0.0769 0.5385 (  1010 PWs)   bands (ev):

    -0.0448   7.7747  10.3654  14.2805  19.0134  19.6405

          k = 0.3077 0.0000 0.4615 (   999 PWs)   bands (ev):

    -1.1477   9.8566  10.8855  15.5236  19.1860  19.8110

          k =-0.1538 0.6154 0.0000 (  1010 PWs)   bands (ev):

    -0.3798  10.5847  11.4601  11.7591  15.3145  16.9091

          k =-0.2308 0.6923-0.0769 (  1015 PWs)   bands (ev):

     0.7169   8.4966  10.4533  11.0211  15.7596  18.3678

          k = 0.6923-0.2308 0.8462 (  1011 PWs)   bands (ev):

     2.0869   6.3106   9.4168  11.1240  16.0056  20.5171

          k = 0.6154-0.1538 0.7692 (  1011 PWs)   bands (ev):

     3.7163   4.3375   8.6569  11.5167  16.4424  22.2035

          k = 0.5385-0.0769 0.6923 (  1005 PWs)   bands (ev):

     2.6085   5.5754   8.2050  12.1794  17.1179  21.8983

          k = 0.4615 0.0000 0.6154 (  1009 PWs)   bands (ev):

     1.1455   7.3133   8.3954  13.1041  18.0246  21.3421

          k =-0.1538 0.7692 0.0000 (  1010 PWs)   bands (ev):

     1.3310   8.6902   9.8614  10.7639  14.5967  16.2500

          k = 0.7692-0.1538 0.9231 (  1006 PWs)   bands (ev):

     2.5950   7.5577   7.9504  10.4884  15.2294  17.8870

          k = 0.6923-0.0769 0.8462 (  1005 PWs)   bands (ev):

     4.0967   5.9417   6.7298  10.7691  15.6582  20.2346

          k = 0.6154 0.0000 0.7692 (  1004 PWs)   bands (ev):

     4.1488   5.4948   6.5441  11.3399  16.2734  22.7031

          k = 0.8462-0.0769 1.0000 (  1003 PWs)   bands (ev):

     3.3542   5.9831   9.4991  10.4116  14.2362  15.9128

          k = 0.7692 0.0000 0.9231 (  1006 PWs)   bands (ev):

     4.4042   5.4068   7.7680  10.3104  15.0513  17.7238

          k =-0.3077 0.6154 0.0000 (  1013 PWs)   bands (ev):

     0.1938   8.7684   9.8212  12.2778  18.1814  19.2790

          k = 0.6154-0.3077 0.9231 (  1014 PWs)   bands (ev):

     1.4761   6.8604   9.4681  11.1625  18.6702  20.2914

          k = 0.5385-0.2308 0.8462 (  1010 PWs)   bands (ev):

     3.0270   4.8354   9.7377  10.3123  18.9443  19.8123

          k = 0.6923-0.2308 1.0000 (  1016 PWs)   bands (ev):

     1.8984   8.0422   9.1002   9.2358  17.4827  18.7350

          k = 0.6154-0.1538 0.9231 (  1010 PWs)   bands (ev):

     3.3445   6.3101   8.2914   8.9247  18.1916  20.5354

          k = 0.5385-0.0769 0.8462 (  1007 PWs)   bands (ev):

     4.4623   5.0226   7.6538   9.3765  18.7267  21.4435

          k = 0.4615 0.0000 0.7692 (  1005 PWs)   bands (ev):

     2.8399   6.5862   7.6591  10.1324  19.4132  20.6902

          k = 0.6923-0.0769 1.0000 (  1006 PWs)   bands (ev):

     3.9114   6.5435   7.6788   8.7373  17.1291  18.4380

          k = 0.6154 0.0000 0.9231 (  1007 PWs)   bands (ev):

     5.1313   6.1223   6.1705   8.7428  18.0250  20.4455

          k = 0.5385-0.0769 1.0000 (  1013 PWs)   bands (ev):

     4.8370   6.2226   7.2874   7.4695  20.3503  20.7509

     the Fermi energy is     6.5040 ev

!    total energy              =     -39.49742566 Ry
     Harris-Foulkes estimate   =     -39.49742570 Ry
     estimated scf accuracy    <       0.00000010 Ry

     total all-electron energy =      -485.640207 Ry

     The total energy is the sum of the following terms:

     one-electron contribution =       2.84111718 Ry
     hartree contribution      =       0.00630659 Ry
     xc contribution           =      -2.95904276 Ry
     ewald contribution        =      -5.15796983 Ry
     one-center paw contrib.   =     -34.22779936 Ry
     smearing contrib. (-TS)   =      -0.00003748 Ry

     convergence has been achieved in   5 iterations

     Writing output data file Al.save

     init_run     :      0.67s CPU      0.70s WALL (       1 calls)
     electrons    :      6.32s CPU      6.55s WALL (       1 calls)

     Called by init_run:
     wfcinit      :      0.33s CPU      0.34s WALL (       1 calls)
     potinit      :      0.07s CPU      0.07s WALL (       1 calls)

     Called by electrons:
     c_bands      :      5.02s CPU      5.21s WALL (       6 calls)
     sum_band     :      0.92s CPU      0.95s WALL (       6 calls)
     v_of_rho     :      0.05s CPU      0.05s WALL (       6 calls)
     newd         :      0.02s CPU      0.02s WALL (       6 calls)
     mix_rho      :      0.04s CPU      0.04s WALL (       6 calls)

     Called by c_bands:
     init_us_2    :      0.21s CPU      0.18s WALL (    1092 calls)
     cegterg      :      4.82s CPU      5.02s WALL (     504 calls)

     Called by *egterg:
     h_psi        :      4.26s CPU      4.42s WALL (    1779 calls)
     s_psi        :      0.04s CPU      0.05s WALL (    1779 calls)
     g_psi        :      0.04s CPU      0.04s WALL (    1191 calls)
     cdiaghg      :      0.37s CPU      0.37s WALL (    1611 calls)

     Called by h_psi:
     add_vuspsi   :      0.05s CPU      0.05s WALL (    1779 calls)

     General routines
     calbec       :      0.11s CPU      0.11s WALL (    2283 calls)
     fft          :      0.03s CPU      0.03s WALL (      80 calls)
     fftw         :      4.68s CPU      4.59s WALL (   19388 calls)
     davcio       :      0.03s CPU      0.04s WALL (    1596 calls)

     Parallel routines
     fft_scatter  :      0.79s CPU      0.92s WALL (   19468 calls)

     PAW routines
     PAW_pot      :      0.31s CPU      0.31s WALL (       6 calls)
     PAW_ddot     :      0.04s CPU      0.03s WALL (      22 calls)
     PAW_symme    :      0.00s CPU      0.00s WALL (      12 calls)

     PWSCF        :     7.73s CPU         8.01s WALL


   This run was terminated on:   1:33:56  12Jul2015            

=------------------------------------------------------------------------------=
   JOB DONE.
=------------------------------------------------------------------------------=
