
     Program PWSCF v.5.0.2 (svn rev. 9656) starts on  7Sep2015 at 14:31:41 

     This program is part of the open-source Quantum ESPRESSO suite
     for quantum simulation of materials; please cite
         "P. Giannozzi et al., J. Phys.:Condens. Matter 21 395502 (2009);
          URL http://www.quantum-espresso.org", 
     in publications or presentations arising from this work. More details at
     http://www.quantum-espresso.org/quote.php

     Parallel version (MPI), running on     4 processors
     R & G space division:  proc/nbgrp/npool/nimage =       4

     Current dimensions of program PWSCF are:
     Max number of different atomic species (ntypx) = 10
     Max number of k-points (npk) =  40000
     Max angular momentum in pseudopotentials (lmaxx) =  3
     Waiting for input...
     Reading input from standard input
               file C.pbe-rrkjus.UPF: wavefunction(s)  2S 2P renormalized

     Subspace diagonalization in iterative solution of the eigenvalue problem:
     a serial algorithm will be used


     Parallelization info
     --------------------
     sticks:   dense  smooth     PW     G-vecs:    dense   smooth      PW
     Min         222     118     37                64728    25190    4247
     Max         223     119     38                64771    25239    4266
     Sum         889     475    151               258975   100883   17041



     bravais-lattice index     =            0
     lattice parameter (alat)  =       4.6500  a.u.
     unit-cell volume          =    1044.8904 (a.u.)^3
     number of atoms/cell      =            2
     number of atomic types    =            1
     number of electrons       =         8.00
     number of Kohn-Sham states=            8
     kinetic-energy cutoff     =      80.0000  Ry
     charge density cutoff     =     600.0000  Ry
     convergence threshold     =      1.0E-08
     mixing beta               =       0.7000
     number of iterations used =            8  plain     mixing
     Exchange-correlation      =  SLA  PW   PBE  PBE ( 1 4 3 4 0)
     EXX-fraction              =        0.00

     celldm(1)=   4.650000  celldm(2)=   0.000000  celldm(3)=   0.000000
     celldm(4)=   0.000000  celldm(5)=   0.000000  celldm(6)=   0.000000

     crystal axes: (cart. coord. in units of alat)
               a(1) = (   1.000000   0.000000   0.000000 )  
               a(2) = (   0.500000   0.866025   0.000000 )  
               a(3) = (   0.000000   0.000000  12.000000 )  

     reciprocal axes: (cart. coord. in units 2 pi/alat)
               b(1) = (  1.000000 -0.577350  0.000000 )  
               b(2) = (  0.000000  1.154701  0.000000 )  
               b(3) = (  0.000000  0.000000  0.083333 )  


     PseudoPot. # 1 for C  read from file:
     ./C.pbe-rrkjus.UPF
     MD5 check sum: 00fb224312de0c5b6853bd333518df6f
     Pseudo is Ultrasoft, Zval =  4.0
     Generated by new atomic code, or converted to UPF format
     Using radial grid of  627 points,  4 beta functions with: 
                l(1) =   0
                l(2) =   0
                l(3) =   1
                l(4) =   1
     Q(r) pseudized with 0 coefficients 


     atomic species   valence    mass     pseudopotential
        C              4.00    12.00000     C ( 1.00)

     12 Sym. Ops. (no inversion) found
          (note: 12 additional sym.ops. were found but ignored
           their fractional translations are incommensurate with FFT grid)


   Cartesian axes

     site n.     atom                  positions (alat units)
         1           C   tau(   1) = (   0.0000000   0.0000000   0.0000000  )
         2           C   tau(   2) = (   1.0000000   0.5773503   0.0000000  )

     number of k points=    12  gaussian smearing, width (Ry)=  0.0010
                       cart. coord. in units 2pi/alat
        k(    1) = (   0.0000000   0.0000000   0.0000000), wk =   0.0246914
        k(    2) = (   0.0000000   0.1283001   0.0000000), wk =   0.1481481
        k(    3) = (   0.0000000   0.2566001   0.0000000), wk =   0.1481481
        k(    4) = (   0.0000000   0.3849002   0.0000000), wk =   0.1481481
        k(    5) = (   0.0000000   0.5132002   0.0000000), wk =   0.1481481
        k(    6) = (   0.1111111   0.1924501   0.0000000), wk =   0.1481481
        k(    7) = (   0.1111111   0.3207502   0.0000000), wk =   0.2962963
        k(    8) = (   0.1111111   0.4490502   0.0000000), wk =   0.2962963
        k(    9) = (   0.1111111  -0.5773503   0.0000000), wk =   0.1481481
        k(   10) = (   0.2222222   0.3849002   0.0000000), wk =   0.1481481
        k(   11) = (   0.2222222  -0.6415003   0.0000000), wk =   0.2962963
        k(   12) = (   0.3333333  -0.5773503   0.0000000), wk =   0.0493827

     Dense  grid:   258975 G-vectors     FFT dimensions: (  40,  40, 450)

     Smooth grid:   100883 G-vectors     FFT dimensions: (  27,  27, 320)

     Largest allocated arrays     est. size (Mb)     dimensions
        Kohn-Sham Wavefunctions         0.39 Mb     (   3174,    8)
        NL pseudopotentials             0.77 Mb     (   3174,   16)
        Each V/rho on FFT grid          2.76 Mb     ( 180800)
        Each G-vector array             0.49 Mb     (  64734)
        G-vector shells                 0.15 Mb     (  19211)
     Largest temporary arrays     est. size (Mb)     dimensions
        Auxiliary wavefunctions         1.55 Mb     (   3174,   32)
        Each subspace H/S matrix        0.02 Mb     (  32,  32)
        Each <psi_i|beta_j> matrix      0.00 Mb     (     16,    8)
        Arrays for rho mixing          22.07 Mb     ( 180800,   8)

     Initial potential from superposition of free atoms

     starting charge    7.99989, renormalised to    8.00000

     negative rho (up, down):  0.292E-04 0.000E+00
     Starting wfc are    8 randomized atomic wfcs

     total cpu time spent up to now is        4.7 secs

     per-process dynamical memory:    30.6 Mb

     Self-consistent Calculation

     iteration #  1     ecut=    80.00 Ry     beta=0.70
     Davidson diagonalization with overlap
     ethr =  1.00E-02,  avg # of iterations =  5.0

     negative rho (up, down):  0.838E-05 0.000E+00

     total cpu time spent up to now is       11.3 secs

     total energy              =     -22.75844106 Ry
     Harris-Foulkes estimate   =     -22.88295360 Ry
     estimated scf accuracy    <       0.20659327 Ry

     iteration #  2     ecut=    80.00 Ry     beta=0.70
     Davidson diagonalization with overlap
     ethr =  2.58E-03,  avg # of iterations =  4.2

     negative rho (up, down):  0.383E-05 0.000E+00

     total cpu time spent up to now is       16.6 secs

     total energy              =     -22.78956765 Ry
     Harris-Foulkes estimate   =     -22.78970480 Ry
     estimated scf accuracy    <       0.00251176 Ry

     iteration #  3     ecut=    80.00 Ry     beta=0.70
     Davidson diagonalization with overlap
     ethr =  3.14E-05,  avg # of iterations =  9.8

     negative rho (up, down):  0.367E-05 0.000E+00

     total cpu time spent up to now is       24.3 secs

     total energy              =     -22.78993240 Ry
     Harris-Foulkes estimate   =     -22.78990201 Ry
     estimated scf accuracy    <       0.00013690 Ry

     iteration #  4     ecut=    80.00 Ry     beta=0.70
     Davidson diagonalization with overlap
     ethr =  1.71E-06,  avg # of iterations =  4.4

     negative rho (up, down):  0.335E-05 0.000E+00

     total cpu time spent up to now is       29.6 secs

     total energy              =     -22.78993725 Ry
     Harris-Foulkes estimate   =     -22.78993712 Ry
     estimated scf accuracy    <       0.00000213 Ry

     iteration #  5     ecut=    80.00 Ry     beta=0.70
     Davidson diagonalization with overlap
     ethr =  2.66E-08,  avg # of iterations =  2.2

     negative rho (up, down):  0.325E-05 0.000E+00

     total cpu time spent up to now is       34.5 secs

     total energy              =     -22.78993671 Ry
     Harris-Foulkes estimate   =     -22.78993965 Ry
     estimated scf accuracy    <       0.00001893 Ry

     iteration #  6     ecut=    80.00 Ry     beta=0.70
     Davidson diagonalization with overlap
     ethr =  2.66E-08,  avg # of iterations =  1.8

     negative rho (up, down):  0.321E-05 0.000E+00

     total cpu time spent up to now is       38.9 secs

     total energy              =     -22.78993813 Ry
     Harris-Foulkes estimate   =     -22.78993812 Ry
     estimated scf accuracy    <       0.00000002 Ry

     iteration #  7     ecut=    80.00 Ry     beta=0.70
     Davidson diagonalization with overlap
     ethr =  3.07E-10,  avg # of iterations =  2.2

     negative rho (up, down):  0.319E-05 0.000E+00

     total cpu time spent up to now is       43.6 secs

     End of self-consistent calculation

          k = 0.0000 0.0000 0.0000 ( 12735 PWs)   bands (ev):

   -22.4912 -10.6016  -6.0244  -6.0244   0.3077   1.0666   1.2714   1.6134

          k = 0.0000 0.1283 0.0000 ( 12749 PWs)   bands (ev):

   -22.1994 -10.2525  -7.1343  -6.5976   0.7051   1.4703   1.6800   2.0201

          k = 0.0000 0.2566 0.0000 ( 12653 PWs)   bands (ev):

   -21.3296  -9.6757  -9.2231  -7.7537   1.8962   2.6755   2.9059   3.2377

          k = 0.0000 0.3849 0.0000 ( 12626 PWs)   bands (ev):

   -19.9029 -12.6019  -8.7747  -7.5939   1.9771   3.8646   4.7048   4.8272

          k = 0.0000 0.5132 0.0000 ( 12572 PWs)   bands (ev):

   -17.9946 -15.3471  -9.3387  -5.7455  -0.7264   4.5365   6.6327   7.4803

          k = 0.1111 0.1925 0.0000 ( 12675 PWs)   bands (ev):

   -21.6186  -9.5625  -8.6841  -7.7425   1.5002   2.2759   2.4973   2.8332

          k = 0.1111 0.3208 0.0000 ( 12622 PWs)   bands (ev):

   -20.4702 -11.1286  -9.1254  -8.2234   3.0861   3.2314   3.8943   4.1318

          k = 0.1111 0.4491 0.0000 ( 12614 PWs)   bands (ev):

   -18.7921 -13.8868 -10.0051  -6.3914   0.3825   5.4251   5.9061   6.2639

          k = 0.1111-0.5774 0.0000 ( 12562 PWs)   bands (ev):

   -17.0421 -16.0364 -10.3047  -5.0517  -1.3457   5.7306   8.4431   8.6154

          k = 0.2222 0.3849 0.0000 ( 12663 PWs)   bands (ev):

   -19.0680 -12.6385 -11.1394  -6.6378   1.0116   5.0556   5.8272   6.1748

          k = 0.2222-0.6415 0.0000 ( 12599 PWs)   bands (ev):

   -17.2151 -14.7543 -12.1361  -4.7570  -1.2324   7.7336   7.9504   8.5923

          k = 0.3333-0.5774 0.0000 ( 12642 PWs)   bands (ev):

   -15.5522 -15.5521 -13.5624  -2.9488  -2.9488   7.6897   9.9574   9.9574

     the Fermi energy is    -2.9488 ev

!    total energy              =     -22.78993814 Ry
     Harris-Foulkes estimate   =     -22.78993814 Ry
     estimated scf accuracy    <          7.0E-10 Ry

     The total energy is the sum of the following terms:

     one-electron contribution =    -353.75989792 Ry
     hartree contribution      =     177.89035602 Ry
     xc contribution           =      -7.02460981 Ry
     ewald contribution        =     160.10424143 Ry
     smearing contrib. (-TS)   =      -0.00002786 Ry

     convergence has been achieved in   7 iterations

     Writing output data file graphene.save

     init_run     :      3.38s CPU      4.19s WALL (       1 calls)
     electrons    :     36.06s CPU     38.93s WALL (       1 calls)

     Called by init_run:
     wfcinit      :      1.18s CPU      1.55s WALL (       1 calls)
     potinit      :      1.01s CPU      1.12s WALL (       1 calls)

     Called by electrons:
     c_bands      :     24.25s CPU     26.08s WALL (       7 calls)
     sum_band     :      6.88s CPU      7.35s WALL (       7 calls)
     v_of_rho     :      2.49s CPU      2.73s WALL (       8 calls)
     newd         :      1.94s CPU      2.12s WALL (       8 calls)
     mix_rho      :      0.40s CPU      0.41s WALL (       7 calls)

     Called by c_bands:
     init_us_2    :      0.37s CPU      0.41s WALL (     180 calls)
     cegterg      :     23.75s CPU     25.52s WALL (      84 calls)

     Called by *egterg:
     h_psi        :     22.67s CPU     24.45s WALL (     449 calls)
     s_psi        :      0.27s CPU      0.27s WALL (     449 calls)
     g_psi        :      0.13s CPU      0.14s WALL (     353 calls)
     cdiaghg      :      0.17s CPU      0.30s WALL (     437 calls)

     Called by h_psi:
     add_vuspsi   :      0.27s CPU      0.29s WALL (     449 calls)

     General routines
     calbec       :      0.43s CPU      0.52s WALL (     533 calls)
     fft          :      2.32s CPU      2.75s WALL (     123 calls)
     ffts         :      0.09s CPU      0.09s WALL (      15 calls)
     fftw         :     18.23s CPU     20.02s WALL (    4880 calls)
     interpolate  :      0.42s CPU      0.44s WALL (      15 calls)
     davcio       :      0.09s CPU      0.16s WALL (     264 calls)

     Parallel routines
     fft_scatter  :      8.02s CPU      9.63s WALL (    5018 calls)

     PWSCF        :    39.66s CPU        43.80s WALL


   This run was terminated on:  14:32:25   7Sep2015            

=------------------------------------------------------------------------------=
   JOB DONE.
=------------------------------------------------------------------------------=
