
     Program PWSCF v.5.0.2 (svn rev. 9656) starts on 26Jul2015 at  6:34:33 

     This program is part of the open-source Quantum ESPRESSO suite
     for quantum simulation of materials; please cite
         "P. Giannozzi et al., J. Phys.:Condens. Matter 21 395502 (2009);
          URL http://www.quantum-espresso.org", 
     in publications or presentations arising from this work. More details at
     http://www.quantum-espresso.org/quote.php

     Parallel version (MPI), running on     4 processors
     R & G space division:  proc/nbgrp/npool/nimage =       4

     Current dimensions of program PWSCF are:
     Max number of different atomic species (ntypx) = 10
     Max number of k-points (npk) =  40000
     Max angular momentum in pseudopotentials (lmaxx) =  3
     Waiting for input...
     Reading input from standard input
               file C.pbe-rrkjus.UPF: wavefunction(s)  2S 2P renormalized

     Atomic positions and unit cell read from directory:
     ./graphene.save/


     Subspace diagonalization in iterative solution of the eigenvalue problem:
     a serial algorithm will be used


     Parallelization info
     --------------------
     sticks:   dense  smooth     PW     G-vecs:    dense   smooth      PW
     Min         222     105     30                64728    20705    3462
     Max         223     106     31                64771    20734    3517
     Sum         889     421    121               258975    82857   13917



     bravais-lattice index     =            0
     lattice parameter (alat)  =       4.6500  a.u.
     unit-cell volume          =    1044.8904 (a.u.)^3
     number of atoms/cell      =            2
     number of atomic types    =            1
     number of electrons       =         8.00
     number of Kohn-Sham states=           15
     kinetic-energy cutoff     =      70.0000  Ry
     charge density cutoff     =     600.0000  Ry
     Exchange-correlation      =  SLA  PW   PBE  PBE ( 1 4 3 4 0)
     EXX-fraction              =        0.00

     celldm(1)=   4.650000  celldm(2)=   0.000000  celldm(3)=   0.000000
     celldm(4)=   0.000000  celldm(5)=   0.000000  celldm(6)=   0.000000

     crystal axes: (cart. coord. in units of alat)
               a(1) = (   1.000000   0.000000   0.000000 )  
               a(2) = (   0.500000   0.866025   0.000000 )  
               a(3) = (   0.000000   0.000000  12.000000 )  

     reciprocal axes: (cart. coord. in units 2 pi/alat)
               b(1) = (  1.000000 -0.577350  0.000000 )  
               b(2) = (  0.000000  1.154701  0.000000 )  
               b(3) = (  0.000000  0.000000  0.083333 )  


     PseudoPot. # 1 for C  read from file:
     ./C.pbe-rrkjus.UPF
     MD5 check sum: 00fb224312de0c5b6853bd333518df6f
     Pseudo is Ultrasoft, Zval =  4.0
     Generated by new atomic code, or converted to UPF format
     Using radial grid of  627 points,  4 beta functions with: 
                l(1) =   0
                l(2) =   0
                l(3) =   1
                l(4) =   1
     Q(r) pseudized with 0 coefficients 


     atomic species   valence    mass     pseudopotential
        C              4.00    12.00000     C ( 1.00)

     12 Sym. Ops. (no inversion) found
          (note: 12 additional sym.ops. were found but ignored
           their fractional translations are incommensurate with FFT grid)


   Cartesian axes

     site n.     atom                  positions (alat units)
         1           C   tau(   1) = (   0.0000000   0.0000000   0.0000000  )
         2           C   tau(   2) = (   1.0000000   0.5773503   0.0000000  )

     number of k points=    90  gaussian smearing, width (Ry)=  0.0030
                       cart. coord. in units 2pi/alat
        k(    1) = (   0.0000000   0.0000000   0.0000000), wk =   0.0222222
        k(    2) = (   0.0172414   0.0099544   0.0000000), wk =   0.0222222
        k(    3) = (   0.0344828   0.0199087   0.0000000), wk =   0.0222222
        k(    4) = (   0.0517241   0.0298631   0.0000000), wk =   0.0222222
        k(    5) = (   0.0689655   0.0398175   0.0000000), wk =   0.0222222
        k(    6) = (   0.0862069   0.0497719   0.0000000), wk =   0.0222222
        k(    7) = (   0.1034483   0.0597263   0.0000000), wk =   0.0222222
        k(    8) = (   0.1206897   0.0696806   0.0000000), wk =   0.0222222
        k(    9) = (   0.1379310   0.0796350   0.0000000), wk =   0.0222222
        k(   10) = (   0.1551724   0.0895894   0.0000000), wk =   0.0222222
        k(   11) = (   0.1724138   0.0995438   0.0000000), wk =   0.0222222
        k(   12) = (   0.1896552   0.1094982   0.0000000), wk =   0.0222222
        k(   13) = (   0.2068966   0.1194525   0.0000000), wk =   0.0222222
        k(   14) = (   0.2241379   0.1294069   0.0000000), wk =   0.0222222
        k(   15) = (   0.2413793   0.1393613   0.0000000), wk =   0.0222222
        k(   16) = (   0.2586207   0.1493157   0.0000000), wk =   0.0222222
        k(   17) = (   0.2758621   0.1592700   0.0000000), wk =   0.0222222
        k(   18) = (   0.2931034   0.1692244   0.0000000), wk =   0.0222222
        k(   19) = (   0.3103448   0.1791788   0.0000000), wk =   0.0222222
        k(   20) = (   0.3275862   0.1891332   0.0000000), wk =   0.0222222
        k(   21) = (   0.3448276   0.1990875   0.0000000), wk =   0.0222222
        k(   22) = (   0.3620690   0.2090419   0.0000000), wk =   0.0222222
        k(   23) = (   0.3793103   0.2189963   0.0000000), wk =   0.0222222
        k(   24) = (   0.3965517   0.2289507   0.0000000), wk =   0.0222222
        k(   25) = (   0.4137931   0.2389051   0.0000000), wk =   0.0222222
        k(   26) = (   0.4310345   0.2488594   0.0000000), wk =   0.0222222
        k(   27) = (   0.4482759   0.2588138   0.0000000), wk =   0.0222222
        k(   28) = (   0.4655172   0.2687682   0.0000000), wk =   0.0222222
        k(   29) = (   0.4827586   0.2787226   0.0000000), wk =   0.0222222
        k(   30) = (   0.5000000   0.2886769   0.0000000), wk =   0.0222222
        k(   31) = (   0.5000000   0.2886769   0.0000000), wk =   0.0222222
        k(   32) = (   0.4942529   0.2986313   0.0000000), wk =   0.0222222
        k(   33) = (   0.4885057   0.3085857   0.0000000), wk =   0.0222222
        k(   34) = (   0.4827586   0.3185401   0.0000000), wk =   0.0222222
        k(   35) = (   0.4770115   0.3284944   0.0000000), wk =   0.0222222
        k(   36) = (   0.4712644   0.3384488   0.0000000), wk =   0.0222222
        k(   37) = (   0.4655172   0.3484032   0.0000000), wk =   0.0222222
        k(   38) = (   0.4597701   0.3583576   0.0000000), wk =   0.0222222
        k(   39) = (   0.4540230   0.3683119   0.0000000), wk =   0.0222222
        k(   40) = (   0.4482758   0.3782663   0.0000000), wk =   0.0222222
        k(   41) = (   0.4425287   0.3882207   0.0000000), wk =   0.0222222
        k(   42) = (   0.4367816   0.3981751   0.0000000), wk =   0.0222222
        k(   43) = (   0.4310345   0.4081294   0.0000000), wk =   0.0222222
        k(   44) = (   0.4252873   0.4180838   0.0000000), wk =   0.0222222
        k(   45) = (   0.4195402   0.4280382   0.0000000), wk =   0.0222222
        k(   46) = (   0.4137931   0.4379926   0.0000000), wk =   0.0222222
        k(   47) = (   0.4080460   0.4479469   0.0000000), wk =   0.0222222
        k(   48) = (   0.4022988   0.4579013   0.0000000), wk =   0.0222222
        k(   49) = (   0.3965517   0.4678557   0.0000000), wk =   0.0222222
        k(   50) = (   0.3908046   0.4778101   0.0000000), wk =   0.0222222
        k(   51) = (   0.3850575   0.4877644   0.0000000), wk =   0.0222222
        k(   52) = (   0.3793103   0.4977188   0.0000000), wk =   0.0222222
        k(   53) = (   0.3735632   0.5076732   0.0000000), wk =   0.0222222
        k(   54) = (   0.3678161   0.5176276   0.0000000), wk =   0.0222222
        k(   55) = (   0.3620689   0.5275819   0.0000000), wk =   0.0222222
        k(   56) = (   0.3563218   0.5375363   0.0000000), wk =   0.0222222
        k(   57) = (   0.3505747   0.5474907   0.0000000), wk =   0.0222222
        k(   58) = (   0.3448276   0.5574451   0.0000000), wk =   0.0222222
        k(   59) = (   0.3390804   0.5673994   0.0000000), wk =   0.0222222
        k(   60) = (   0.3333333   0.5773538   0.0000000), wk =   0.0222222
        k(   61) = (   0.3333333   0.5773538   0.0000000), wk =   0.0222222
        k(   62) = (   0.3218391   0.5574451   0.0000000), wk =   0.0222222
        k(   63) = (   0.3103448   0.5375363   0.0000000), wk =   0.0222222
        k(   64) = (   0.2988505   0.5176276   0.0000000), wk =   0.0222222
        k(   65) = (   0.2873563   0.4977188   0.0000000), wk =   0.0222222
        k(   66) = (   0.2758620   0.4778100   0.0000000), wk =   0.0222222
        k(   67) = (   0.2643678   0.4579013   0.0000000), wk =   0.0222222
        k(   68) = (   0.2528735   0.4379925   0.0000000), wk =   0.0222222
        k(   69) = (   0.2413793   0.4180838   0.0000000), wk =   0.0222222
        k(   70) = (   0.2298850   0.3981750   0.0000000), wk =   0.0222222
        k(   71) = (   0.2183908   0.3782663   0.0000000), wk =   0.0222222
        k(   72) = (   0.2068965   0.3583575   0.0000000), wk =   0.0222222
        k(   73) = (   0.1954023   0.3384488   0.0000000), wk =   0.0222222
        k(   74) = (   0.1839080   0.3185400   0.0000000), wk =   0.0222222
        k(   75) = (   0.1724138   0.2986313   0.0000000), wk =   0.0222222
        k(   76) = (   0.1609195   0.2787225   0.0000000), wk =   0.0222222
        k(   77) = (   0.1494253   0.2588138   0.0000000), wk =   0.0222222
        k(   78) = (   0.1379310   0.2389050   0.0000000), wk =   0.0222222
        k(   79) = (   0.1264368   0.2189963   0.0000000), wk =   0.0222222
        k(   80) = (   0.1149425   0.1990875   0.0000000), wk =   0.0222222
        k(   81) = (   0.1034483   0.1791788   0.0000000), wk =   0.0222222
        k(   82) = (   0.0919540   0.1592700   0.0000000), wk =   0.0222222
        k(   83) = (   0.0804598   0.1393613   0.0000000), wk =   0.0222222
        k(   84) = (   0.0689655   0.1194525   0.0000000), wk =   0.0222222
        k(   85) = (   0.0574713   0.0995438   0.0000000), wk =   0.0222222
        k(   86) = (   0.0459770   0.0796350   0.0000000), wk =   0.0222222
        k(   87) = (   0.0344828   0.0597263   0.0000000), wk =   0.0222222
        k(   88) = (   0.0229885   0.0398175   0.0000000), wk =   0.0222222
        k(   89) = (   0.0114942   0.0199087   0.0000000), wk =   0.0222222
        k(   90) = (   0.0000000   0.0000000   0.0000000), wk =   0.0222222

     Dense  grid:   258975 G-vectors     FFT dimensions: (  40,  40, 450)

     Smooth grid:    82857 G-vectors     FFT dimensions: (  25,  25, 300)

     Largest allocated arrays     est. size (Mb)     dimensions
        Kohn-Sham Wavefunctions         0.59 Mb     (   2589,   15)
        NL pseudopotentials             0.63 Mb     (   2589,   16)
        Each V/rho on FFT grid          2.76 Mb     ( 180800)
        Each G-vector array             0.49 Mb     (  64734)
        G-vector shells                 0.15 Mb     (  19061)
     Largest temporary arrays     est. size (Mb)     dimensions
        Auxiliary wavefunctions         2.37 Mb     (   2589,   60)
        Each subspace H/S matrix        0.05 Mb     (  60,  60)
        Each <psi_i|beta_j> matrix      0.00 Mb     (     16,   15)

     The potential is recalculated from file :
     ./graphene.save/charge-density.dat


     negative rho (up, down):  0.319E-05 0.000E+00
     Starting wfc are    8 randomized atomic wfcs

     total cpu time spent up to now is        1.9 secs

     per-process dynamical memory:    29.0 Mb

     Band Structure Calculation
     Davidson diagonalization with overlap
     c_bands:  1 eigenvalues not converged

     ethr =  1.25E-10,  avg # of iterations = 35.9

     total cpu time spent up to now is      303.2 secs

     End of band structure calculation

          k = 0.0000 0.0000 0.0000     band energies (ev):

   -22.4911 -10.6016  -6.0241  -6.0241   0.3076   1.0666   1.2715   1.6135
     1.8256   2.5189   2.8257   3.8307   4.2073   5.3618   5.3618

          k = 0.0172 0.0100 0.0000     band energies (ev):

   -22.4841 -10.5931  -6.0533  -6.0397   0.3171   1.0763   1.2814   1.6233
     1.8354   2.5287   2.8355   3.8404   4.2170   5.3663   5.3927

          k = 0.0345 0.0199 0.0000     band energies (ev):

   -22.4630 -10.5678  -6.1399  -6.0857   0.3458   1.1055   1.3109   1.6527
     1.8648   2.5580   2.8647   3.8696   4.2459   5.3790   5.4848

          k = 0.0517 0.0299 0.0000     band energies (ev):

   -22.4278 -10.5257  -6.2816  -6.1606   0.3937   1.1541   1.3601   1.7016
     1.9138   2.6069   2.9135   3.9183   4.2941   5.3972   5.6031

          k = 0.0690 0.0398 0.0000     band energies (ev):

   -22.3786 -10.4667  -6.4747  -6.2616   0.4607   1.2222   1.4290   1.7702
     1.9824   2.6752   2.9818   3.9864   4.3615   5.4176   5.6707

          k = 0.0862 0.0498 0.0000     band energies (ev):

   -22.3153 -10.3911  -6.7148  -6.3855   0.5468   1.3096   1.5175   1.8583
     2.0706   2.7631   3.0695   4.0739   4.4482   5.4362   5.7577

          k = 0.1034 0.0597 0.0000     band energies (ev):

   -22.2381 -10.2988  -6.9967  -6.5285   0.6520   1.4165   1.6257   1.9660
     2.1785   2.8705   3.1768   4.1808   4.5539   5.4493   5.8639

          k = 0.1207 0.0697 0.0000     band energies (ev):

   -22.1469 -10.1899  -7.3151  -6.6870   0.7765   1.5428   1.7536   2.0933
     2.3059   2.9974   3.3036   4.3071   4.6785   5.4541   5.9893

          k = 0.1379 0.0796 0.0000     band energies (ev):

   -22.0418 -10.0647  -7.6649  -6.8573   0.9200   1.6884   1.9012   2.2401
     2.4529   3.1437   3.4498   4.4527   4.8214   5.4494   6.1334

          k = 0.1552 0.0896 0.0000     band energies (ev):

   -21.9228  -9.9232  -8.0411  -7.0357   1.0826   1.8533   2.0685   2.4064
     2.6196   3.3095   3.6155   4.6175   4.9808   5.4363   6.2944

          k = 0.1724 0.0995 0.0000     band energies (ev):

   -21.7900  -9.7657  -8.4391  -7.2193   1.2643   2.0374   2.2554   2.5923
     2.8058   3.4946   3.8006   4.8013   5.1489   5.4229   6.2976

          k = 0.1897 0.1095 0.0000     band energies (ev):

   -21.6435  -9.5924  -8.8548  -7.4050   1.4651   2.2406   2.4620   2.7976
     3.0116   3.6989   4.0049   5.0029   5.2725   5.4635   5.9035

          k = 0.2069 0.1195 0.0000     band energies (ev):

   -21.4833  -9.4036  -9.2845  -7.5905   1.6849   2.4626   2.6883   3.0222
     3.2370   3.9220   4.2283   5.2112   5.2731   5.4947   5.6385

          k = 0.2241 0.1294 0.0000     band energies (ev):

   -21.3096  -9.7249  -9.1996  -7.7736   1.9236   2.7030   2.9343   3.2658
     3.4819   4.1621   4.4701   5.0229   5.2314   5.4877   5.8699

          k = 0.2414 0.1394 0.0000     band energies (ev):

   -21.1224 -10.1731  -8.9809  -7.9523   2.1811   2.9603   3.1999   3.5273
     3.7463   4.3921   4.6116   4.7276   5.1817   5.7422   6.1277

          k = 0.2586 0.1493 0.0000     band energies (ev):

   -20.9218 -10.6265  -8.7480  -8.1250   2.4575   3.2281   3.4852   3.7952
     4.0299   4.1176   4.7293   4.9760   5.1557   6.0215   6.4071

          k = 0.2759 0.1593 0.0000     band energies (ev):

   -20.7081 -11.0829  -8.5015  -8.2904   2.7525   3.4160   3.7217   3.7902
     4.1359   4.3324   5.0233   5.0247   5.3491   6.3210   6.7068

          k = 0.2931 0.1692 0.0000     band energies (ev):

   -20.4813 -11.5404  -8.4472  -8.2422   3.0658   3.0788   3.9064   4.1147
     4.4498   4.6509   4.9765   5.3442   5.6596   6.6399   7.0263

          k = 0.3103 0.1792 0.0000     band energies (ev):

   -20.2418 -11.9970  -8.5944  -7.9712   2.6121   3.3970   4.2301   4.4586
     4.7900   4.8847   5.0281   5.6841   5.9976   6.9779   7.3654

          k = 0.3276 0.1891 0.0000     band energies (ev):

   -19.9896 -12.4512  -8.7313  -7.6897   2.1358   3.7451   4.5824   4.8115
     4.8590   5.1507   5.3716   6.0435   6.3568   7.3348   7.7239

          k = 0.3448 0.1991 0.0000     band energies (ev):

   -19.7252 -12.9015  -8.8569  -7.3995   1.6615   4.1066   4.8002   4.9561
     5.2083   5.5313   5.7512   6.4223   6.7362   7.7105   8.1017

          k = 0.3621 0.2090 0.0000     band energies (ev):

   -19.4488 -13.3465  -8.9708  -7.1029   1.1951   4.4589   4.7850   5.3494
     5.6112   5.9315   6.1519   6.8203   7.1352   8.1045   8.4987

          k = 0.3793 0.2190 0.0000     band energies (ev):

   -19.1612 -13.7848  -9.0724  -6.8032   0.7417   4.6229   4.9800   5.7615
     6.0340   6.3511   6.5725   7.2372   7.5536   8.5166   8.9147

          k = 0.3966 0.2290 0.0000     band energies (ev):

   -18.8630 -14.2150  -9.1613  -6.5046   0.3074   4.6110   5.3739   6.1921
     6.4766   6.7901   7.0129   7.6729   7.9913   8.9462   9.3496

          k = 0.4138 0.2389 0.0000     band energies (ev):

   -18.5555 -14.6350  -9.2370  -6.2136  -0.1004   4.5820   5.8084   6.6406
     6.9389   7.2482   7.4728   8.1271   8.4482   9.3922   9.8030

          k = 0.4310 0.2489 0.0000     band energies (ev):

   -18.2411 -15.0422  -9.2994  -5.9392  -0.4716   4.5546   6.2648   7.1064
     7.4209   7.7255   7.9521   8.5994   8.9241   9.8517  10.2712

          k = 0.4483 0.2588 0.0000     band energies (ev):

   -17.9243 -15.4315  -9.3481  -5.6944  -0.7925   4.5320   6.7397   7.5887
     7.9225   8.2217   8.4507   9.0886   9.4180   9.9082  10.3053

          k = 0.4655 0.2688 0.0000     band energies (ev):

   -17.6165 -15.7914  -9.3830  -5.4962  -1.0454   4.5154   7.2312   8.0861
     8.4438   8.7362   8.9679   9.3527   9.5891   9.9344  10.2181

          k = 0.4828 0.2787 0.0000     band energies (ev):

   -17.3513 -16.0878  -9.4040  -5.3650  -1.2096   4.5053   7.7370   8.5948
     8.8066   8.9852   9.2651   9.5069   9.6707  10.1253  10.1347

          k = 0.5000 0.2887 0.0000     band energies (ev):

   -17.2292 -16.2204  -9.4110  -5.3188  -1.2669   4.5019   8.1890   8.3422
     9.0308   9.2220   9.5446   9.5459   9.8006   9.8544  10.0567

          k = 0.5000 0.2887 0.0000     band energies (ev):

   -17.2292 -16.2204  -9.4110  -5.3188  -1.2669   4.5019   8.1890   8.3422
     9.0308   9.2220   9.5446   9.5459   9.8006   9.8544  10.0567

          k = 0.4943 0.2986 0.0000     band energies (ev):

   -17.2272 -16.2184  -9.4216  -5.3159  -1.2675   4.5161   8.1917   8.3452
     9.0312   9.2252   9.5479   9.5492   9.8033   9.8576  10.0599

          k = 0.4885 0.3086 0.0000     band energies (ev):

   -17.2211 -16.2124  -9.4531  -5.3073  -1.2695   4.5587   8.2000   8.3540
     9.0323   9.2350   9.5577   9.5590   9.8115   9.8674  10.0695

          k = 0.4828 0.3185 0.0000     band energies (ev):

   -17.2111 -16.2024  -9.5051  -5.2930  -1.2729   4.6290   8.2137   8.3687
     9.0336   9.2512   9.5741   9.5754   9.8251   9.8838  10.0855

          k = 0.4770 0.3285 0.0000     band energies (ev):

   -17.1971 -16.1884  -9.5769  -5.2730  -1.2778   4.7265   8.2329   8.3893
     9.0346   9.2739   9.5970   9.5983   9.8441   9.9067  10.1079

          k = 0.4713 0.3384 0.0000     band energies (ev):

   -17.1791 -16.1705  -9.6677  -5.2472  -1.2844   4.8500   8.2576   8.4157
     9.0344   9.3031   9.6264   9.6278   9.8686   9.9362  10.1367

          k = 0.4655 0.3484 0.0000     band energies (ev):

   -17.1570 -16.1487  -9.7762  -5.2157  -1.2930   4.9984   8.2877   8.4479
     9.0318   9.3388   9.6624   9.6638   9.8984   9.9721  10.1719

          k = 0.4598 0.3584 0.0000     band energies (ev):

   -17.1310 -16.1230  -9.9011  -5.1786  -1.3037   5.1701   8.3231   8.4859
     9.0254   9.3809   9.7049   9.7064   9.9335  10.0147  10.2134

          k = 0.4540 0.3683 0.0000     band energies (ev):

   -17.1010 -16.0935 -10.0413  -5.1357  -1.3169   5.3638   8.3637   8.5297
     9.0133   9.4296   9.7539   9.7555   9.9741  10.0637  10.2613

          k = 0.4483 0.3783 0.0000     band energies (ev):

   -17.0669 -16.0604 -10.1951  -5.0871  -1.3331   5.5777   8.4096   8.5791
     8.9936   9.4847   9.8095   9.8111  10.0202  10.1194  10.3155

          k = 0.4425 0.3882 0.0000     band energies (ev):

   -17.0289 -16.0236 -10.3611  -5.0329  -1.3524   5.8101   8.4606   8.6343
     8.9645   9.5463   9.8717   9.8733  10.0718  10.1815  10.3760

          k = 0.4368 0.3982 0.0000     band energies (ev):

   -16.9868 -15.9834 -10.5379  -4.9730  -1.3756   6.0593   8.5165   8.6950
     8.9242   9.6144   9.9403   9.9421  10.1292  10.2502  10.4428

          k = 0.4310 0.4081 0.0000     band energies (ev):

   -16.9408 -15.9399 -10.7241  -4.9074  -1.4029   6.3234   8.5773   8.7612
     8.8716   9.6889  10.0155  10.0174  10.1925  10.3255  10.5159

          k = 0.4253 0.4181 0.0000     band energies (ev):

   -16.8908 -15.8932 -10.9181  -4.8362  -1.4350   6.6006   8.6427   8.8065
     8.8329   9.7699  10.0972  10.0992  10.2619  10.4072  10.5951

          k = 0.4195 0.4280 0.0000     band energies (ev):

   -16.8368 -15.8437 -11.1187  -4.7594  -1.4723   6.8889   8.7126   8.7295
     8.9099   9.8574  10.1854  10.1876  10.3378  10.4956  10.6805

          k = 0.4138 0.4380 0.0000     band energies (ev):

   -16.7788 -15.7916 -11.3244  -4.6769  -1.5154   7.1863   8.6424   8.7868
     8.9923   9.9514  10.2801  10.2825  10.4204  10.5904  10.7720

          k = 0.4080 0.4479 0.0000     band energies (ev):

   -16.7168 -15.7373 -11.5338  -4.5889  -1.5649   7.4905   8.5474   8.8649
     9.0800  10.0518  10.3814  10.3839  10.5097  10.6918  10.8695

          k = 0.4023 0.4579 0.0000     band energies (ev):

   -16.6509 -15.6814 -11.7456  -4.4953  -1.6213   7.7989   8.4475   8.9466
     9.1731  10.1587  10.4891  10.4919  10.6060  10.7997  10.9728

          k = 0.3966 0.4679 0.0000     band energies (ev):

   -16.5810 -15.6246 -11.9581  -4.3962  -1.6851   8.1086   8.3455   9.0316
     9.2718  10.2720  10.6033  10.6064  10.7093  10.9142  11.0818

          k = 0.3908 0.4778 0.0000     band energies (ev):

   -16.5071 -15.5676 -12.1698  -4.2916  -1.7567   8.2445   8.4157   9.1192
     9.3766  10.3918  10.7239  10.7274  10.8196  11.0352  11.1962

          k = 0.3851 0.4878 0.0000     band energies (ev):

   -16.4293 -15.5117 -12.3789  -4.1814  -1.8366   8.1470   8.7150   9.2091
     9.4889  10.5180  10.8510  10.8549  10.9369  11.1627  11.3159

          k = 0.3793 0.4977 0.0000     band energies (ev):

   -16.3475 -15.4585 -12.5829  -4.0659  -1.9251   8.0553   8.9988   9.3005
     9.6117  10.6507  10.9844  10.9889  11.0609  11.2968  11.4404

          k = 0.3736 0.5077 0.0000     band energies (ev):

   -16.2618 -15.4104 -12.7793  -3.9448  -2.0225   7.9715   9.2560   9.3926
     9.7500  10.7898  11.1242  11.1295  11.1915  11.4374  11.5692

          k = 0.3678 0.5176 0.0000     band energies (ev):

   -16.1721 -15.3701 -12.9645  -3.8184  -2.1288   7.8971   9.4732   9.4844
     9.9096  10.9353  11.2702  11.2765  11.3283  11.5846  11.7014

          k = 0.3621 0.5276 0.0000     band energies (ev):

   -16.0785 -15.3419 -13.1339  -3.6866  -2.2440   7.8333   9.5748   9.6444
    10.0863  11.0872  11.4223  11.4299  11.4706  11.7382  11.8361

          k = 0.3563 0.5375 0.0000     band energies (ev):

   -15.9810 -15.3306 -13.2823  -3.5495  -2.3682   7.7808   9.6626   9.7765
    10.2603  11.2455  11.5803  11.5896  11.6174  11.8984  11.9719

          k = 0.3506 0.5475 0.0000     band energies (ev):

   -15.8796 -15.3420 -13.4037  -3.4071  -2.5011   7.7403   9.7463   9.8780
    10.4070  11.4102  11.7439  11.7554  11.7660  12.0651  12.1070

          k = 0.3448 0.5574 0.0000     band energies (ev):

   -15.7743 -15.3813 -13.4924  -3.2595  -2.6425   7.7118   9.8244   9.9491
    10.5086  11.5813  11.9083  11.9125  11.9270  12.2384  12.2398

          k = 0.3391 0.5674 0.0000     band energies (ev):

   -15.6651 -15.4514 -13.5452  -3.1066  -2.7918   7.6950   9.8953   9.9810
    10.5595  11.7588  12.0100  12.0847  12.1032  12.3699  12.3856

          k = 0.3333 0.5774 0.0000     band energies (ev):

   -15.5522 -15.5518 -13.5622  -2.9491  -2.9483   7.6897   9.9573   9.9575
    10.5714  11.9425  11.9426  12.2579  12.2580  12.2931  12.3816

          k = 0.3333 0.5774 0.0000     band energies (ev):

   -15.5522 -15.5518 -13.5622  -2.9491  -2.9483   7.6897   9.9573   9.9575
    10.5714  11.9425  11.9426  12.2579  12.2580  12.2931  12.3816

          k = 0.3218 0.5574 0.0000     band energies (ev):

   -15.8294 -15.3144 -13.5037  -3.2830  -2.6176   7.7089   9.7024  10.0500
    10.5561  11.3825  11.5469  11.8916  11.9794  12.3292  12.5857

          k = 0.3103 0.5375 0.0000     band energies (ev):

   -16.1734 -15.0614 -13.3553  -3.6405  -2.2665   7.7567   9.2430  10.0952
    10.5047  10.7414  10.8332  11.2183  11.3195  12.0870  12.1851

          k = 0.2989 0.5176 0.0000     band energies (ev):

   -16.5510 -14.7933 -13.1493  -4.0161  -1.8961   7.8094   8.6969  10.0932
    10.1167  10.1325  10.3792  10.5728  10.6662  11.4501  11.5702

          k = 0.2874 0.4977 0.0000     band energies (ev):

   -16.9421 -14.5103 -12.9048  -4.4045  -1.5070   7.8228   8.1230   9.4676
     9.5261   9.9543   9.9835  10.0502  10.2389  10.8440  10.9426

          k = 0.2759 0.4778 0.0000     band energies (ev):

   -17.3357 -14.2125 -12.6328  -4.8007  -1.0998   7.5467   7.7265   8.8261
     8.9658   9.3362   9.4865   9.9576   9.9747  10.3043  10.3370

          k = 0.2644 0.4579 0.0000     band energies (ev):

   -17.7253 -13.9004 -12.3396  -5.2005  -0.6754   6.9797   7.4658   8.2102
     8.4144   8.7294   9.0697   9.5924   9.8060   9.8753   9.8860

          k = 0.2529 0.4380 0.0000     band energies (ev):

   -18.1068 -13.5741 -12.0292  -5.5998  -0.2347   6.4283   7.0722   7.6203
     7.8652   8.1453   8.6322   9.0834   9.4180   9.5876   9.7589

          k = 0.2414 0.4181 0.0000     band energies (ev):

   -18.4778 -13.2342 -11.7048  -5.9952   0.2213   5.8958   6.6159   7.0565
     7.3264   7.5858   8.1505   8.5435   9.0723   9.2633   9.6306

          k = 0.2299 0.3982 0.0000     band energies (ev):

   -18.8364 -12.8810 -11.3687  -6.3837   0.6912   5.3842   6.1419   6.5188
     6.8052   7.0515   7.6575   8.0184   8.7320   8.8564   9.4101

          k = 0.2184 0.3783 0.0000     band energies (ev):

   -19.1812 -12.5151 -11.0231  -6.7629   1.1738   4.8950   5.6716   6.0073
     6.3052   6.5428   7.1732   7.5156   8.3955   8.4138   8.9144

          k = 0.2069 0.3584 0.0000     band energies (ev):

   -19.5113 -12.1371 -10.6700  -7.1305   1.6673   4.4290   5.2148   5.5220
     5.8284   6.0599   6.7061   7.0369   7.9690   8.0637   8.4479

          k = 0.1954 0.3384 0.0000     band energies (ev):

   -19.8260 -11.7480 -10.3115  -7.4849   2.1699   3.9868   4.7766   5.0629
     5.3758   5.6028   6.2601   6.5833   7.5363   7.7345   8.0160

          k = 0.1839 0.3185 0.0000     band energies (ev):

   -20.1247 -11.3486  -9.9496  -7.8245   2.6794   3.5688   4.3595   4.6300
     4.9481   5.1718   5.8370   6.1550   7.1219   7.3998   7.6292

          k = 0.1724 0.2986 0.0000     band energies (ev):

   -20.4068 -10.9402  -9.5866  -8.1479   3.1754   3.1934   3.9653   4.2233
     4.5457   4.7667   5.4380   5.7523   6.7290   7.0531   7.2964

          k = 0.1609 0.2787 0.0000     band energies (ev):

   -20.6720 -10.5241  -9.2251  -8.4541   2.8068   3.5948   3.7090   3.8429
     4.1687   4.3877   5.0637   5.3753   6.3592   6.7046   7.0088

          k = 0.1494 0.2588 0.0000     band energies (ev):

   -20.9199 -10.1021  -8.8675  -8.7422   2.4633   3.2488   3.4887   3.8174
     4.0348   4.2230   4.7145   5.0243   6.0134   6.3687   6.7533

          k = 0.1379 0.2389 0.0000     band energies (ev):

   -21.1503  -9.6763  -9.0114  -8.5168   2.1448   2.9275   3.1607   3.4919
     3.7080   4.3906   4.6991   4.7315   5.6923   6.0528   6.5234

          k = 0.1264 0.2190 0.0000     band energies (ev):

   -21.3629  -9.2610  -9.2493  -8.1759   1.8516   2.6313   2.8589   3.1922
     3.4074   4.0923   4.3998   5.2303   5.3961   5.7599   6.3169

          k = 0.1149 0.1991 0.0000     band energies (ev):

   -21.5576  -9.4905  -8.8244  -7.8481   1.5838   2.3605   2.5834   2.9185
     3.1328   3.8197   4.1266   5.1252   5.4914   5.7149   6.1327

          k = 0.1034 0.1792 0.0000     band energies (ev):

   -21.7342  -9.6993  -8.4054  -7.5367   1.3413   2.1152   2.3342   2.6707
     2.8844   3.5728   3.8794   4.8798   5.2479   5.9705   6.1798

          k = 0.0920 0.1593 0.0000     band energies (ev):

   -21.8925  -9.8871  -7.9971  -7.2454   1.1244   1.8954   2.1111   2.4489
     2.6622   3.3519   3.6582   4.6599   5.0297   5.8297   6.3397

          k = 0.0805 0.1394 0.0000     band energies (ev):

   -22.0324 -10.0535  -7.6054  -6.9776   0.9329   1.7014   1.9144   2.2532
     2.4661   3.1568   3.4630   4.4658   4.8370   5.7098   6.1470

          k = 0.0690 0.1195 0.0000     band energies (ev):

   -22.1539 -10.1983  -7.2371  -6.7368   0.7670   1.5331   1.7438   2.0835
     2.2961   2.9876   3.2939   4.2974   4.6700   5.6100   5.9798

          k = 0.0575 0.0995 0.0000     band energies (ev):

   -22.2568 -10.3211  -6.9006  -6.5265   0.6266   1.3906   1.5995   1.9399
     2.1523   2.8445   3.1508   4.1549   4.5286   5.5291   5.8382

          k = 0.0460 0.0796 0.0000     band energies (ev):

   -22.3411 -10.4219  -6.6052  -6.3496   0.5117   1.2740   1.4814   1.8224
     2.0347   2.7273   3.0338   4.0382   4.4130   5.4659   5.7223

          k = 0.0345 0.0597 0.0000     band energies (ev):

   -22.4067 -10.5004  -6.3607  -6.2090   0.4224   1.1833   1.3896   1.7310
     1.9432   2.6362   2.9428   3.9475   4.3230   5.4189   5.6321

          k = 0.0230 0.0398 0.0000     band energies (ev):

   -22.4536 -10.5566  -6.1770  -6.1069   0.3586   1.1185   1.3240   1.6657
     1.8778   2.5710   2.8778   3.8826   4.2587   5.3867   5.5228

          k = 0.0115 0.0199 0.0000     band energies (ev):

   -22.4817 -10.5903  -6.0629  -6.0449   0.3203   1.0796   1.2846   1.6265
     1.8386   2.5320   2.8387   3.8437   4.2202   5.3680   5.4028

          k = 0.0000 0.0000 0.0000     band energies (ev):

   -22.4911 -10.6016  -6.0241  -6.0241   0.3076   1.0666   1.2715   1.6135
     1.8256   2.5189   2.8257   3.8307   4.2073   5.3618   5.3618

     Writing output data file graphene.save

     init_run     :      1.66s CPU      1.76s WALL (       1 calls)
     electrons    :    292.61s CPU    301.35s WALL (       1 calls)

     Called by init_run:
     wfcinit      :      0.00s CPU      0.00s WALL (       1 calls)
     potinit      :      0.44s CPU      0.46s WALL (       1 calls)

     Called by electrons:
     c_bands      :    292.60s CPU    301.33s WALL (       1 calls)
     v_of_rho     :      0.32s CPU      0.33s WALL (       1 calls)
     newd         :      0.27s CPU      0.27s WALL (       1 calls)

     Called by c_bands:
     init_us_2    :      0.13s CPU      0.19s WALL (      90 calls)
     cegterg      :    279.48s CPU    287.53s WALL (     202 calls)

     Called by *egterg:
     h_psi        :    243.10s CPU    250.16s WALL (    3526 calls)
     s_psi        :      3.00s CPU      3.03s WALL (    3526 calls)
     g_psi        :      1.89s CPU      1.90s WALL (    3234 calls)
     cdiaghg      :      4.95s CPU      4.96s WALL (    3324 calls)

     Called by h_psi:
     add_vuspsi   :      2.84s CPU      2.90s WALL (    3526 calls)

     General routines
     calbec       :      3.92s CPU      4.00s WALL (    3526 calls)
     fft          :      0.22s CPU      0.24s WALL (      12 calls)
     ffts         :      0.00s CPU      0.00s WALL (       1 calls)
     fftw         :    141.52s CPU    146.52s WALL (   56134 calls)
     interpolate  :      0.03s CPU      0.03s WALL (       1 calls)
     davcio       :      0.08s CPU      0.15s WALL (      90 calls)

     Parallel routines
     fft_scatter  :     77.04s CPU     81.18s WALL (   56147 calls)

     PWSCF        :  4m54.81s CPU     5m 3.70s WALL


   This run was terminated on:   6:39:37  26Jul2015            

=------------------------------------------------------------------------------=
   JOB DONE.
=------------------------------------------------------------------------------=
