
     Program PWSCF v.5.0.2 (svn rev. 9656) starts on  7Sep2015 at 14:32:26 

     This program is part of the open-source Quantum ESPRESSO suite
     for quantum simulation of materials; please cite
         "P. Giannozzi et al., J. Phys.:Condens. Matter 21 395502 (2009);
          URL http://www.quantum-espresso.org", 
     in publications or presentations arising from this work. More details at
     http://www.quantum-espresso.org/quote.php

     Parallel version (MPI), running on     4 processors
     R & G space division:  proc/nbgrp/npool/nimage =       4

     Current dimensions of program PWSCF are:
     Max number of different atomic species (ntypx) = 10
     Max number of k-points (npk) =  40000
     Max angular momentum in pseudopotentials (lmaxx) =  3
     Waiting for input...
     Reading input from standard input
               file C.pbe-rrkjus.UPF: wavefunction(s)  2S 2P renormalized

     Atomic positions and unit cell read from directory:
     ./graphene.save/


     Subspace diagonalization in iterative solution of the eigenvalue problem:
     a serial algorithm will be used


     Parallelization info
     --------------------
     sticks:   dense  smooth     PW     G-vecs:    dense   smooth      PW
     Min         222     118     37                64728    25196    4237
     Max         223     119     38                64771    25237    4254
     Sum         889     475    151               258975   100883   16993



     bravais-lattice index     =            0
     lattice parameter (alat)  =       4.6500  a.u.
     unit-cell volume          =    1044.8904 (a.u.)^3
     number of atoms/cell      =            2
     number of atomic types    =            1
     number of electrons       =         8.00
     number of Kohn-Sham states=           15
     kinetic-energy cutoff     =      80.0000  Ry
     charge density cutoff     =     600.0000  Ry
     Exchange-correlation      =  SLA  PW   PBE  PBE ( 1 4 3 4 0)
     EXX-fraction              =        0.00

     celldm(1)=   4.650000  celldm(2)=   0.000000  celldm(3)=   0.000000
     celldm(4)=   0.000000  celldm(5)=   0.000000  celldm(6)=   0.000000

     crystal axes: (cart. coord. in units of alat)
               a(1) = (   1.000000   0.000000   0.000000 )  
               a(2) = (   0.500000   0.866025   0.000000 )  
               a(3) = (   0.000000   0.000000  12.000000 )  

     reciprocal axes: (cart. coord. in units 2 pi/alat)
               b(1) = (  1.000000 -0.577350  0.000000 )  
               b(2) = (  0.000000  1.154701  0.000000 )  
               b(3) = (  0.000000  0.000000  0.083333 )  


     PseudoPot. # 1 for C  read from file:
     ./C.pbe-rrkjus.UPF
     MD5 check sum: 00fb224312de0c5b6853bd333518df6f
     Pseudo is Ultrasoft, Zval =  4.0
     Generated by new atomic code, or converted to UPF format
     Using radial grid of  627 points,  4 beta functions with: 
                l(1) =   0
                l(2) =   0
                l(3) =   1
                l(4) =   1
     Q(r) pseudized with 0 coefficients 


     atomic species   valence    mass     pseudopotential
        C              4.00    12.00000     C ( 1.00)

     12 Sym. Ops. (no inversion) found
          (note: 12 additional sym.ops. were found but ignored
           their fractional translations are incommensurate with FFT grid)


   Cartesian axes

     site n.     atom                  positions (alat units)
         1           C   tau(   1) = (   0.0000000   0.0000000   0.0000000  )
         2           C   tau(   2) = (   1.0000000   0.5773503   0.0000000  )

     number of k points=    90  gaussian smearing, width (Ry)=  0.0030
                       cart. coord. in units 2pi/alat
        k(    1) = (   0.0000000   0.0000000   0.0000000), wk =   0.0222222
        k(    2) = (   0.0172414   0.0099544   0.0000000), wk =   0.0222222
        k(    3) = (   0.0344828   0.0199087   0.0000000), wk =   0.0222222
        k(    4) = (   0.0517241   0.0298631   0.0000000), wk =   0.0222222
        k(    5) = (   0.0689655   0.0398175   0.0000000), wk =   0.0222222
        k(    6) = (   0.0862069   0.0497719   0.0000000), wk =   0.0222222
        k(    7) = (   0.1034483   0.0597263   0.0000000), wk =   0.0222222
        k(    8) = (   0.1206897   0.0696806   0.0000000), wk =   0.0222222
        k(    9) = (   0.1379310   0.0796350   0.0000000), wk =   0.0222222
        k(   10) = (   0.1551724   0.0895894   0.0000000), wk =   0.0222222
        k(   11) = (   0.1724138   0.0995438   0.0000000), wk =   0.0222222
        k(   12) = (   0.1896552   0.1094982   0.0000000), wk =   0.0222222
        k(   13) = (   0.2068966   0.1194525   0.0000000), wk =   0.0222222
        k(   14) = (   0.2241379   0.1294069   0.0000000), wk =   0.0222222
        k(   15) = (   0.2413793   0.1393613   0.0000000), wk =   0.0222222
        k(   16) = (   0.2586207   0.1493157   0.0000000), wk =   0.0222222
        k(   17) = (   0.2758621   0.1592700   0.0000000), wk =   0.0222222
        k(   18) = (   0.2931034   0.1692244   0.0000000), wk =   0.0222222
        k(   19) = (   0.3103448   0.1791788   0.0000000), wk =   0.0222222
        k(   20) = (   0.3275862   0.1891332   0.0000000), wk =   0.0222222
        k(   21) = (   0.3448276   0.1990875   0.0000000), wk =   0.0222222
        k(   22) = (   0.3620690   0.2090419   0.0000000), wk =   0.0222222
        k(   23) = (   0.3793103   0.2189963   0.0000000), wk =   0.0222222
        k(   24) = (   0.3965517   0.2289507   0.0000000), wk =   0.0222222
        k(   25) = (   0.4137931   0.2389051   0.0000000), wk =   0.0222222
        k(   26) = (   0.4310345   0.2488594   0.0000000), wk =   0.0222222
        k(   27) = (   0.4482759   0.2588138   0.0000000), wk =   0.0222222
        k(   28) = (   0.4655172   0.2687682   0.0000000), wk =   0.0222222
        k(   29) = (   0.4827586   0.2787226   0.0000000), wk =   0.0222222
        k(   30) = (   0.5000000   0.2886769   0.0000000), wk =   0.0222222
        k(   31) = (   0.5000000   0.2886769   0.0000000), wk =   0.0222222
        k(   32) = (   0.4942529   0.2986313   0.0000000), wk =   0.0222222
        k(   33) = (   0.4885057   0.3085857   0.0000000), wk =   0.0222222
        k(   34) = (   0.4827586   0.3185401   0.0000000), wk =   0.0222222
        k(   35) = (   0.4770115   0.3284944   0.0000000), wk =   0.0222222
        k(   36) = (   0.4712644   0.3384488   0.0000000), wk =   0.0222222
        k(   37) = (   0.4655172   0.3484032   0.0000000), wk =   0.0222222
        k(   38) = (   0.4597701   0.3583576   0.0000000), wk =   0.0222222
        k(   39) = (   0.4540230   0.3683119   0.0000000), wk =   0.0222222
        k(   40) = (   0.4482758   0.3782663   0.0000000), wk =   0.0222222
        k(   41) = (   0.4425287   0.3882207   0.0000000), wk =   0.0222222
        k(   42) = (   0.4367816   0.3981751   0.0000000), wk =   0.0222222
        k(   43) = (   0.4310345   0.4081294   0.0000000), wk =   0.0222222
        k(   44) = (   0.4252873   0.4180838   0.0000000), wk =   0.0222222
        k(   45) = (   0.4195402   0.4280382   0.0000000), wk =   0.0222222
        k(   46) = (   0.4137931   0.4379926   0.0000000), wk =   0.0222222
        k(   47) = (   0.4080460   0.4479469   0.0000000), wk =   0.0222222
        k(   48) = (   0.4022988   0.4579013   0.0000000), wk =   0.0222222
        k(   49) = (   0.3965517   0.4678557   0.0000000), wk =   0.0222222
        k(   50) = (   0.3908046   0.4778101   0.0000000), wk =   0.0222222
        k(   51) = (   0.3850575   0.4877644   0.0000000), wk =   0.0222222
        k(   52) = (   0.3793103   0.4977188   0.0000000), wk =   0.0222222
        k(   53) = (   0.3735632   0.5076732   0.0000000), wk =   0.0222222
        k(   54) = (   0.3678161   0.5176276   0.0000000), wk =   0.0222222
        k(   55) = (   0.3620689   0.5275819   0.0000000), wk =   0.0222222
        k(   56) = (   0.3563218   0.5375363   0.0000000), wk =   0.0222222
        k(   57) = (   0.3505747   0.5474907   0.0000000), wk =   0.0222222
        k(   58) = (   0.3448276   0.5574451   0.0000000), wk =   0.0222222
        k(   59) = (   0.3390804   0.5673994   0.0000000), wk =   0.0222222
        k(   60) = (   0.3333333   0.5773538   0.0000000), wk =   0.0222222
        k(   61) = (   0.3333333   0.5773538   0.0000000), wk =   0.0222222
        k(   62) = (   0.3218391   0.5574451   0.0000000), wk =   0.0222222
        k(   63) = (   0.3103448   0.5375363   0.0000000), wk =   0.0222222
        k(   64) = (   0.2988505   0.5176276   0.0000000), wk =   0.0222222
        k(   65) = (   0.2873563   0.4977188   0.0000000), wk =   0.0222222
        k(   66) = (   0.2758620   0.4778100   0.0000000), wk =   0.0222222
        k(   67) = (   0.2643678   0.4579013   0.0000000), wk =   0.0222222
        k(   68) = (   0.2528735   0.4379925   0.0000000), wk =   0.0222222
        k(   69) = (   0.2413793   0.4180838   0.0000000), wk =   0.0222222
        k(   70) = (   0.2298850   0.3981750   0.0000000), wk =   0.0222222
        k(   71) = (   0.2183908   0.3782663   0.0000000), wk =   0.0222222
        k(   72) = (   0.2068965   0.3583575   0.0000000), wk =   0.0222222
        k(   73) = (   0.1954023   0.3384488   0.0000000), wk =   0.0222222
        k(   74) = (   0.1839080   0.3185400   0.0000000), wk =   0.0222222
        k(   75) = (   0.1724138   0.2986313   0.0000000), wk =   0.0222222
        k(   76) = (   0.1609195   0.2787225   0.0000000), wk =   0.0222222
        k(   77) = (   0.1494253   0.2588138   0.0000000), wk =   0.0222222
        k(   78) = (   0.1379310   0.2389050   0.0000000), wk =   0.0222222
        k(   79) = (   0.1264368   0.2189963   0.0000000), wk =   0.0222222
        k(   80) = (   0.1149425   0.1990875   0.0000000), wk =   0.0222222
        k(   81) = (   0.1034483   0.1791788   0.0000000), wk =   0.0222222
        k(   82) = (   0.0919540   0.1592700   0.0000000), wk =   0.0222222
        k(   83) = (   0.0804598   0.1393613   0.0000000), wk =   0.0222222
        k(   84) = (   0.0689655   0.1194525   0.0000000), wk =   0.0222222
        k(   85) = (   0.0574713   0.0995438   0.0000000), wk =   0.0222222
        k(   86) = (   0.0459770   0.0796350   0.0000000), wk =   0.0222222
        k(   87) = (   0.0344828   0.0597263   0.0000000), wk =   0.0222222
        k(   88) = (   0.0229885   0.0398175   0.0000000), wk =   0.0222222
        k(   89) = (   0.0114942   0.0199087   0.0000000), wk =   0.0222222
        k(   90) = (   0.0000000   0.0000000   0.0000000), wk =   0.0222222

     Dense  grid:   258975 G-vectors     FFT dimensions: (  40,  40, 450)

     Smooth grid:   100883 G-vectors     FFT dimensions: (  27,  27, 320)

     Largest allocated arrays     est. size (Mb)     dimensions
        Kohn-Sham Wavefunctions         0.74 Mb     (   3221,   15)
        NL pseudopotentials             0.79 Mb     (   3221,   16)
        Each V/rho on FFT grid          2.76 Mb     ( 180800)
        Each G-vector array             0.49 Mb     (  64734)
        G-vector shells                 0.15 Mb     (  19042)
     Largest temporary arrays     est. size (Mb)     dimensions
        Auxiliary wavefunctions         2.95 Mb     (   3221,   60)
        Each subspace H/S matrix        0.05 Mb     (  60,  60)
        Each <psi_i|beta_j> matrix      0.00 Mb     (     16,   15)

     The potential is recalculated from file :
     ./graphene.save/charge-density.dat


     negative rho (up, down):  0.319E-05 0.000E+00
     Starting wfc are    8 randomized atomic wfcs

     total cpu time spent up to now is        1.9 secs

     per-process dynamical memory:    29.3 Mb

     Band Structure Calculation
     Davidson diagonalization with overlap
     c_bands:  1 eigenvalues not converged

     ethr =  1.25E-10,  avg # of iterations = 36.1

     total cpu time spent up to now is      449.7 secs

     End of band structure calculation

          k = 0.0000 0.0000 0.0000     band energies (ev):

   -22.4911 -10.6016  -6.0243  -6.0243   0.3077   1.0667   1.2715   1.6135
     1.8256   2.5190   2.8258   3.8307   4.2074   5.3618   5.3618

          k = 0.0172 0.0100 0.0000     band energies (ev):

   -22.4841 -10.5931  -6.0534  -6.0398   0.3172   1.0764   1.2814   1.6233
     1.8354   2.5287   2.8355   3.8405   4.2170   5.3663   5.3927

          k = 0.0345 0.0199 0.0000     band energies (ev):

   -22.4630 -10.5678  -6.1400  -6.0859   0.3459   1.1056   1.3109   1.6527
     1.8648   2.5580   2.8648   3.8696   4.2459   5.3789   5.4847

          k = 0.0517 0.0299 0.0000     band energies (ev):

   -22.4278 -10.5257  -6.2817  -6.1607   0.3938   1.1542   1.3601   1.7017
     1.9138   2.6069   2.9135   3.9183   4.2941   5.3972   5.6031

          k = 0.0690 0.0398 0.0000     band energies (ev):

   -22.3786 -10.4668  -6.4749  -6.2617   0.4607   1.2222   1.4290   1.7702
     1.9824   2.6752   2.9818   3.9864   4.3615   5.4176   5.6708

          k = 0.0862 0.0498 0.0000     band energies (ev):

   -22.3153 -10.3911  -6.7149  -6.3856   0.5469   1.3097   1.5175   1.8583
     2.0706   2.7631   3.0696   4.0739   4.4482   5.4361   5.7577

          k = 0.1034 0.0597 0.0000     band energies (ev):

   -22.2381 -10.2988  -6.9968  -6.5287   0.6521   1.4166   1.6257   1.9660
     2.1785   2.8705   3.1768   4.1808   4.5540   5.4492   5.8639

          k = 0.1207 0.0697 0.0000     band energies (ev):

   -22.1469 -10.1899  -7.3153  -6.6872   0.7765   1.5429   1.7536   2.0933
     2.3059   2.9974   3.3036   4.3071   4.6786   5.4541   5.9893

          k = 0.1379 0.0796 0.0000     band energies (ev):

   -22.0418 -10.0647  -7.6650  -6.8574   0.9201   1.6885   1.9012   2.2401
     2.4530   3.1437   3.4498   4.4527   4.8215   5.4494   6.1334

          k = 0.1552 0.0896 0.0000     band energies (ev):

   -21.9228  -9.9232  -8.0412  -7.0359   1.0827   1.8534   2.0685   2.4065
     2.6196   3.3095   3.6155   4.6176   4.9808   5.4363   6.2945

          k = 0.1724 0.0995 0.0000     band energies (ev):

   -21.7900  -9.7657  -8.4392  -7.2194   1.2644   2.0375   2.2554   2.5923
     2.8058   3.4946   3.8006   4.8013   5.1489   5.4228   6.2976

          k = 0.1897 0.1095 0.0000     band energies (ev):

   -21.6435  -9.5924  -8.8549  -7.4052   1.4652   2.2407   2.4621   2.7976
     3.0116   3.6989   4.0049   5.0029   5.2725   5.4635   5.9034

          k = 0.2069 0.1195 0.0000     band energies (ev):

   -21.4833  -9.4036  -9.2846  -7.5907   1.6849   2.4627   2.6883   3.0222
     3.2370   3.9220   4.2283   5.2112   5.2731   5.4946   5.6385

          k = 0.2241 0.1294 0.0000     band energies (ev):

   -21.3096  -9.7249  -9.1996  -7.7737   1.9236   2.7031   2.9343   3.2658
     3.4819   4.1621   4.4701   5.0229   5.2314   5.4877   5.8699

          k = 0.2414 0.1394 0.0000     band energies (ev):

   -21.1224 -10.1731  -8.9809  -7.9524   2.1812   2.9604   3.1999   3.5273
     3.7463   4.3921   4.6116   4.7276   5.1817   5.7422   6.1277

          k = 0.2586 0.1493 0.0000     band energies (ev):

   -20.9218 -10.6266  -8.7480  -8.1251   2.4576   3.2282   3.4852   3.7952
     4.0299   4.1176   4.7293   4.9761   5.1557   6.0215   6.4071

          k = 0.2759 0.1593 0.0000     band energies (ev):

   -20.7081 -11.0830  -8.5015  -8.2905   2.7525   3.4160   3.7217   3.7902
     4.1359   4.3324   5.0233   5.0247   5.3491   6.3210   6.7068

          k = 0.2931 0.1692 0.0000     band energies (ev):

   -20.4814 -11.5404  -8.4473  -8.2422   3.0659   3.0788   3.9064   4.1147
     4.4499   4.6509   4.9765   5.3442   5.6596   6.6399   7.0263

          k = 0.3103 0.1792 0.0000     band energies (ev):

   -20.2418 -11.9970  -8.5946  -7.9712   2.6121   3.3971   4.2302   4.4586
     4.7900   4.8847   5.0281   5.6841   5.9976   6.9779   7.3655

          k = 0.3276 0.1891 0.0000     band energies (ev):

   -19.9896 -12.4512  -8.7314  -7.6897   2.1358   3.7452   4.5825   4.8115
     4.8590   5.1507   5.3716   6.0435   6.3569   7.3349   7.7240

          k = 0.3448 0.1991 0.0000     band energies (ev):

   -19.7252 -12.9015  -8.8571  -7.3995   1.6615   4.1066   4.8003   4.9562
     5.2084   5.5313   5.7512   6.4223   6.7362   7.7105   8.1018

          k = 0.3621 0.2090 0.0000     band energies (ev):

   -19.4489 -13.3466  -8.9710  -7.1030   1.1951   4.4589   4.7850   5.3495
     5.6112   5.9315   6.1519   6.8203   7.1352   8.1045   8.4988

          k = 0.3793 0.2190 0.0000     band energies (ev):

   -19.1612 -13.7849  -9.0726  -6.8032   0.7417   4.6229   4.9801   5.7616
     6.0340   6.3511   6.5726   7.2372   7.5536   8.5166   8.9148

          k = 0.3966 0.2290 0.0000     band energies (ev):

   -18.8630 -14.2150  -9.1614  -6.5046   0.3073   4.6110   5.3740   6.1922
     6.4767   6.7901   7.0129   7.6729   7.9914   8.9462   9.3496

          k = 0.4138 0.2389 0.0000     band energies (ev):

   -18.5555 -14.6351  -9.2371  -6.2136  -0.1004   4.5820   5.8085   6.6407
     6.9390   7.2483   7.4728   8.1271   8.4483   9.3922   9.8030

          k = 0.4310 0.2489 0.0000     band energies (ev):

   -18.2411 -15.0423  -9.2995  -5.9393  -0.4716   4.5546   6.2649   7.1065
     7.4209   7.7255   7.9521   8.5994   8.9241   9.8517  10.2712

          k = 0.4483 0.2588 0.0000     band energies (ev):

   -17.9243 -15.4316  -9.3482  -5.6944  -0.7925   4.5320   6.7398   7.5888
     7.9225   8.2217   8.4507   9.0886   9.4180   9.9082  10.3053

          k = 0.4655 0.2688 0.0000     band energies (ev):

   -17.6165 -15.7914  -9.3831  -5.4962  -1.0454   4.5154   7.2313   8.0862
     8.4438   8.7362   8.9679   9.3527   9.5891   9.9344  10.2182

          k = 0.4828 0.2787 0.0000     band energies (ev):

   -17.3513 -16.0878  -9.4041  -5.3650  -1.2096   4.5053   7.7370   8.5949
     8.8067   8.9852   9.2651   9.5069   9.6707  10.1253  10.1347

          k = 0.5000 0.2887 0.0000     band energies (ev):

   -17.2292 -16.2205  -9.4111  -5.3188  -1.2669   4.5019   8.1890   8.3423
     9.0310   9.2220   9.5446   9.5459   9.8006   9.8544  10.0567

          k = 0.5000 0.2887 0.0000     band energies (ev):

   -17.2292 -16.2205  -9.4111  -5.3188  -1.2669   4.5019   8.1890   8.3423
     9.0310   9.2220   9.5446   9.5459   9.8006   9.8544  10.0567

          k = 0.4943 0.2986 0.0000     band energies (ev):

   -17.2272 -16.2184  -9.4217  -5.3159  -1.2675   4.5161   8.1917   8.3453
     9.0313   9.2253   9.5479   9.5492   9.8033   9.8577  10.0599

          k = 0.4885 0.3086 0.0000     band energies (ev):

   -17.2212 -16.2124  -9.4532  -5.3073  -1.2695   4.5587   8.2000   8.3541
     9.0324   9.2350   9.5577   9.5590   9.8115   9.8675  10.0695

          k = 0.4828 0.3185 0.0000     band energies (ev):

   -17.2111 -16.2024  -9.5052  -5.2930  -1.2729   4.6290   8.2138   8.3688
     9.0337   9.2512   9.5741   9.5754   9.8251   9.8838  10.0855

          k = 0.4770 0.3285 0.0000     band energies (ev):

   -17.1971 -16.1884  -9.5771  -5.2730  -1.2778   4.7265   8.2330   8.3894
     9.0347   9.2739   9.5970   9.5983   9.8441   9.9067  10.1079

          k = 0.4713 0.3384 0.0000     band energies (ev):

   -17.1791 -16.1705  -9.6678  -5.2472  -1.2844   4.8500   8.2576   8.4158
     9.0345   9.3031   9.6264   9.6278   9.8686   9.9362  10.1367

          k = 0.4655 0.3484 0.0000     band energies (ev):

   -17.1571 -16.1487  -9.7763  -5.2158  -1.2930   4.9984   8.2877   8.4480
     9.0320   9.3388   9.6624   9.6638   9.8984   9.9722  10.1719

          k = 0.4598 0.3584 0.0000     band energies (ev):

   -17.1310 -16.1230  -9.9013  -5.1786  -1.3037   5.1701   8.3231   8.4860
     9.0255   9.3810   9.7049   9.7064   9.9336  10.0147  10.2134

          k = 0.4540 0.3683 0.0000     band energies (ev):

   -17.1010 -16.0936 -10.0414  -5.1357  -1.3169   5.3638   8.3638   8.5298
     9.0134   9.4296   9.7540   9.7555   9.9741  10.0638  10.2613

          k = 0.4483 0.3783 0.0000     band energies (ev):

   -17.0669 -16.0604 -10.1952  -5.0871  -1.3331   5.5777   8.4096   8.5792
     8.9937   9.4847   9.8095   9.8111  10.0202  10.1194  10.3155

          k = 0.4425 0.3882 0.0000     band energies (ev):

   -17.0289 -16.0237 -10.3612  -5.0329  -1.3525   5.8101   8.4606   8.6343
     8.9646   9.5464   9.8717   9.8734  10.0718  10.1815  10.3760

          k = 0.4368 0.3982 0.0000     band energies (ev):

   -16.9869 -15.9834 -10.5380  -4.9730  -1.3756   6.0593   8.5165   8.6950
     8.9243   9.6144   9.9403   9.9421  10.1292  10.2502  10.4428

          k = 0.4310 0.4081 0.0000     band energies (ev):

   -16.9408 -15.9399 -10.7242  -4.9074  -1.4029   6.3234   8.5773   8.7613
     8.8717   9.6890  10.0155  10.0174  10.1925  10.3255  10.5159

          k = 0.4253 0.4181 0.0000     band energies (ev):

   -16.8908 -15.8933 -10.9182  -4.8362  -1.4350   6.6006   8.6427   8.8066
     8.8329   9.7700  10.0972  10.0992  10.2620  10.4073  10.5952

          k = 0.4195 0.4280 0.0000     band energies (ev):

   -16.8368 -15.8437 -11.1188  -4.7594  -1.4723   6.8889   8.7126   8.7296
     8.9100   9.8575  10.1854  10.1876  10.3378  10.4956  10.6806

          k = 0.4138 0.4380 0.0000     band energies (ev):

   -16.7788 -15.7916 -11.3245  -4.6770  -1.5154   7.1863   8.6424   8.7868
     8.9924   9.9515  10.2802  10.2825  10.4204  10.5904  10.7720

          k = 0.4080 0.4479 0.0000     band energies (ev):

   -16.7169 -15.7374 -11.5339  -4.5889  -1.5649   7.4904   8.5475   8.8649
     9.0801  10.0519  10.3814  10.3839  10.5097  10.6918  10.8695

          k = 0.4023 0.4579 0.0000     band energies (ev):

   -16.6509 -15.6815 -11.7456  -4.4954  -1.6213   7.7989   8.4475   8.9466
     9.1732  10.1588  10.4891  10.4919  10.6060  10.7998  10.9728

          k = 0.3966 0.4679 0.0000     band energies (ev):

   -16.5810 -15.6246 -11.9582  -4.3962  -1.6851   8.1086   8.3456   9.0316
     9.2718  10.2721  10.6033  10.6064  10.7093  10.9142  11.0818

          k = 0.3908 0.4778 0.0000     band energies (ev):

   -16.5071 -15.5676 -12.1699  -4.2916  -1.7568   8.2445   8.4157   9.1193
     9.3767  10.3919  10.7239  10.7274  10.8197  11.0352  11.1963

          k = 0.3851 0.4878 0.0000     band energies (ev):

   -16.4293 -15.5117 -12.3789  -4.1815  -1.8367   8.1470   8.7149   9.2091
     9.4890  10.5181  10.8510  10.8549  10.9369  11.1628  11.3159

          k = 0.3793 0.4977 0.0000     band energies (ev):

   -16.3475 -15.4586 -12.5830  -4.0659  -1.9252   8.0554   8.9988   9.3005
     9.6117  10.6508  10.9844  10.9889  11.0609  11.2968  11.4404

          k = 0.3736 0.5077 0.0000     band energies (ev):

   -16.2618 -15.4104 -12.7794  -3.9449  -2.0225   7.9716   9.2560   9.3926
     9.7500  10.7898  11.1242  11.1295  11.1915  11.4374  11.5692

          k = 0.3678 0.5176 0.0000     band energies (ev):

   -16.1721 -15.3702 -12.9645  -3.8184  -2.1288   7.8972   9.4732   9.4844
     9.9096  10.9353  11.2702  11.2765  11.3283  11.5846  11.7014

          k = 0.3621 0.5276 0.0000     band energies (ev):

   -16.0785 -15.3419 -13.1340  -3.6866  -2.2441   7.8333   9.5748   9.6444
    10.0864  11.0873  11.4223  11.4299  11.4707  11.7382  11.8361

          k = 0.3563 0.5375 0.0000     band energies (ev):

   -15.9810 -15.3307 -13.2824  -3.5495  -2.3682   7.7809   9.6626   9.7765
    10.2603  11.2456  11.5803  11.5896  11.6175  11.8984  11.9719

          k = 0.3506 0.5475 0.0000     band energies (ev):

   -15.8796 -15.3421 -13.4037  -3.4071  -2.5012   7.7403   9.7463   9.8779
    10.4071  11.4103  11.7439  11.7554  11.7661  12.0651  12.1070

          k = 0.3448 0.5574 0.0000     band energies (ev):

   -15.7743 -15.3813 -13.4925  -3.2595  -2.6425   7.7118   9.8244   9.9490
    10.5086  11.5814  11.9084  11.9125  11.9270  12.2384  12.2399

          k = 0.3391 0.5674 0.0000     band energies (ev):

   -15.6651 -15.4514 -13.5453  -3.1067  -2.7918   7.6951   9.8953   9.9810
    10.5595  11.7589  12.0101  12.0847  12.1032  12.3699  12.3857

          k = 0.3333 0.5774 0.0000     band energies (ev):

   -15.5521 -15.5520 -13.5623  -2.9488  -2.9487   7.6897   9.9574   9.9574
    10.5715  11.9426  11.9427  12.2579  12.2581  12.2931  12.3817

          k = 0.3333 0.5774 0.0000     band energies (ev):

   -15.5521 -15.5520 -13.5623  -2.9488  -2.9487   7.6897   9.9574   9.9574
    10.5715  11.9426  11.9427  12.2579  12.2581  12.2931  12.3817

          k = 0.3218 0.5574 0.0000     band energies (ev):

   -15.8294 -15.3144 -13.5038  -3.2830  -2.6176   7.7089   9.7024  10.0499
    10.5561  11.3826  11.5470  11.8916  11.9794  12.3292  12.5858

          k = 0.3103 0.5375 0.0000     band energies (ev):

   -16.1735 -15.0614 -13.3554  -3.6406  -2.2665   7.7567   9.2430  10.0952
    10.5047  10.7415  10.8332  11.2183  11.3196  12.0870  12.1851

          k = 0.2989 0.5176 0.0000     band energies (ev):

   -16.5510 -14.7933 -13.1493  -4.0161  -1.8961   7.8094   8.6969  10.0932
    10.1168  10.1325  10.3792  10.5728  10.6662  11.4501  11.5702

          k = 0.2874 0.4977 0.0000     band energies (ev):

   -16.9421 -14.5103 -12.9049  -4.4045  -1.5070   7.8228   8.1230   9.4676
     9.5261   9.9543   9.9836  10.0501  10.2389  10.8441  10.9426

          k = 0.2759 0.4778 0.0000     band energies (ev):

   -17.3357 -14.2126 -12.6329  -4.8008  -1.0998   7.5467   7.7265   8.8261
     8.9658   9.3362   9.4866   9.9576   9.9747  10.3043  10.3371

          k = 0.2644 0.4579 0.0000     band energies (ev):

   -17.7253 -13.9004 -12.3396  -5.2005  -0.6754   6.9798   7.4659   8.2102
     8.4144   8.7294   9.0697   9.5924   9.8060   9.8753   9.8861

          k = 0.2529 0.4380 0.0000     band energies (ev):

   -18.1069 -13.5742 -12.0293  -5.5998  -0.2347   6.4284   7.0723   7.6203
     7.8652   8.1453   8.6322   9.0834   9.4179   9.5877   9.7589

          k = 0.2414 0.4181 0.0000     band energies (ev):

   -18.4778 -13.2342 -11.7049  -5.9952   0.2213   5.8958   6.6160   7.0565
     7.3265   7.5858   8.1505   8.5435   9.0723   9.2633   9.6306

          k = 0.2299 0.3982 0.0000     band energies (ev):

   -18.8364 -12.8810 -11.3688  -6.3837   0.6912   5.3843   6.1420   6.5188
     6.8052   7.0515   7.6576   8.0184   8.7319   8.8564   9.4101

          k = 0.2184 0.3783 0.0000     band energies (ev):

   -19.1812 -12.5151 -11.0232  -6.7629   1.1737   4.8951   5.6716   6.0073
     6.3052   6.5428   7.1733   7.5156   8.3954   8.4138   8.9144

          k = 0.2069 0.3584 0.0000     band energies (ev):

   -19.5114 -12.1372 -10.6701  -7.1306   1.6673   4.4291   5.2149   5.5220
     5.8284   6.0599   6.7062   7.0370   7.9690   8.0636   8.4479

          k = 0.1954 0.3384 0.0000     band energies (ev):

   -19.8260 -11.7481 -10.3116  -7.4849   2.1699   3.9869   4.7766   5.0629
     5.3759   5.6028   6.2601   6.5833   7.5363   7.7344   8.0160

          k = 0.1839 0.3185 0.0000     band energies (ev):

   -20.1247 -11.3487  -9.9497  -7.8245   2.6794   3.5689   4.3596   4.6300
     4.9482   5.1718   5.8370   6.1550   7.1219   7.3998   7.6292

          k = 0.1724 0.2986 0.0000     band energies (ev):

   -20.4068 -10.9402  -9.5868  -8.1479   3.1755   3.1934   3.9654   4.2233
     4.5457   4.7667   5.4380   5.7523   6.7291   7.0532   7.2964

          k = 0.1609 0.2787 0.0000     band energies (ev):

   -20.6720 -10.5241  -9.2252  -8.4542   2.8069   3.5949   3.7090   3.8429
     4.1687   4.3877   5.0637   5.3754   6.3592   6.7046   7.0088

          k = 0.1494 0.2588 0.0000     band energies (ev):

   -20.9199 -10.1022  -8.8676  -8.7423   2.4633   3.2488   3.4887   3.8174
     4.0348   4.2229   4.7145   5.0243   6.0134   6.3687   6.7533

          k = 0.1379 0.2389 0.0000     band energies (ev):

   -21.1503  -9.6764  -9.0114  -8.5169   2.1449   2.9276   3.1607   3.4919
     3.7080   4.3906   4.6991   4.7314   5.6923   6.0528   6.5234

          k = 0.1264 0.2190 0.0000     band energies (ev):

   -21.3629  -9.2610  -9.2494  -8.1760   1.8517   2.6314   2.8589   3.1922
     3.4074   4.0923   4.3999   5.2303   5.3961   5.7600   6.3168

          k = 0.1149 0.1991 0.0000     band energies (ev):

   -21.5576  -9.4905  -8.8245  -7.8482   1.5838   2.3606   2.5834   2.9185
     3.1328   3.8197   4.1266   5.1252   5.4914   5.7148   6.1327

          k = 0.1034 0.1792 0.0000     band energies (ev):

   -21.7342  -9.6993  -8.4055  -7.5369   1.3414   2.1152   2.3342   2.6707
     2.8844   3.5729   3.8794   4.8798   5.2479   5.9704   6.1798

          k = 0.0920 0.1593 0.0000     band energies (ev):

   -21.8925  -9.8871  -7.9972  -7.2455   1.1244   1.8955   2.1111   2.4489
     2.6622   3.3519   3.6582   4.6600   5.0297   5.8297   6.3397

          k = 0.0805 0.1394 0.0000     band energies (ev):

   -22.0324 -10.0535  -7.6055  -6.9777   0.9330   1.7015   1.9144   2.2532
     2.4661   3.1568   3.4631   4.4658   4.8371   5.7098   6.1470

          k = 0.0690 0.1195 0.0000     band energies (ev):

   -22.1539 -10.1983  -7.2373  -6.7370   0.7670   1.5332   1.7438   2.0835
     2.2961   2.9876   3.2939   4.2975   4.6700   5.6099   5.9799

          k = 0.0575 0.0995 0.0000     band energies (ev):

   -22.2568 -10.3211  -6.9008  -6.5266   0.6266   1.3907   1.5995   1.9399
     2.1523   2.8445   3.1509   4.1549   4.5287   5.5290   5.8383

          k = 0.0460 0.0796 0.0000     band energies (ev):

   -22.3411 -10.4219  -6.6053  -6.3497   0.5118   1.2741   1.4814   1.8224
     2.0347   2.7273   3.0338   4.0382   4.4130   5.4658   5.7223

          k = 0.0345 0.0597 0.0000     band energies (ev):

   -22.4067 -10.5004  -6.3608  -6.2091   0.4225   1.1834   1.3896   1.7310
     1.9432   2.6362   2.9428   3.9475   4.3230   5.4188   5.6321

          k = 0.0230 0.0398 0.0000     band energies (ev):

   -22.4536 -10.5566  -6.1772  -6.1070   0.3587   1.1185   1.3240   1.6658
     1.8778   2.5711   2.8778   3.8826   4.2588   5.3866   5.5228

          k = 0.0115 0.0199 0.0000     band energies (ev):

   -22.4817 -10.5903  -6.0630  -6.0450   0.3204   1.0796   1.2847   1.6266
     1.8386   2.5320   2.8388   3.8437   4.2202   5.3679   5.4028

          k = 0.0000 0.0000 0.0000     band energies (ev):

   -22.4911 -10.6016  -6.0243  -6.0243   0.3077   1.0667   1.2715   1.6135
     1.8256   2.5190   2.8258   3.8307   4.2074   5.3618   5.3618

     Writing output data file graphene.save

     init_run     :      1.63s CPU      1.75s WALL (       1 calls)
     electrons    :    387.92s CPU    447.87s WALL (       1 calls)

     Called by init_run:
     wfcinit      :      0.00s CPU      0.00s WALL (       1 calls)
     potinit      :      0.43s CPU      0.46s WALL (       1 calls)

     Called by electrons:
     c_bands      :    387.92s CPU    447.87s WALL (       1 calls)
     v_of_rho     :      0.31s CPU      0.33s WALL (       1 calls)
     newd         :      0.25s CPU      0.26s WALL (       1 calls)

     Called by c_bands:
     init_us_2    :      0.15s CPU      0.26s WALL (      90 calls)
     cegterg      :    370.48s CPU    427.96s WALL (     209 calls)

     Called by *egterg:
     h_psi        :    331.73s CPU    382.05s WALL (    3551 calls)
     s_psi        :      3.49s CPU      3.55s WALL (    3551 calls)
     g_psi        :      2.30s CPU      2.44s WALL (    3252 calls)
     cdiaghg      :      5.27s CPU      6.32s WALL (    3342 calls)

     Called by h_psi:
     add_vuspsi   :      3.32s CPU      3.54s WALL (    3551 calls)

     General routines
     calbec       :      4.22s CPU      5.18s WALL (    3551 calls)
     fft          :      0.22s CPU      0.24s WALL (      12 calls)
     ffts         :      0.01s CPU      0.01s WALL (       1 calls)
     fftw         :    228.97s CPU    274.25s WALL (   56620 calls)
     interpolate  :      0.03s CPU      0.03s WALL (       1 calls)
     davcio       :      0.03s CPU      0.18s WALL (      90 calls)

     Parallel routines
     fft_scatter  :     94.76s CPU    130.96s WALL (   56633 calls)

     PWSCF        :  6m30.09s CPU     7m30.21s WALL


   This run was terminated on:  14:39:56   7Sep2015            

=------------------------------------------------------------------------------=
   JOB DONE.
=------------------------------------------------------------------------------=
