
     Program PWSCF v.5.1.1 starts on 18Jun2015 at 16:36:21 

     This program is part of the open-source Quantum ESPRESSO suite
     for quantum simulation of materials; please cite
         "P. Giannozzi et al., J. Phys.:Condens. Matter 21 395502 (2009);
          URL http://www.quantum-espresso.org", 
     in publications or presentations arising from this work. More details at
     http://www.quantum-espresso.org/quote

     Serial version
     Waiting for input...
     Reading input from standard input
     Message from routine read_cards :
     DEPRECATED: no units specified in ATOMIC_POSITIONS card
     Message from routine read_cards :
     ATOMIC_POSITIONS: units set to alat

     Current dimensions of program PWSCF are:
     Max number of different atomic species (ntypx) = 10
     Max number of k-points (npk) =  40000
     Max angular momentum in pseudopotentials (lmaxx) =  3

     Atomic positions and unit cell read from directory:
     /home/georgeyumnam/Software/q-e-master/tempdir/cu.save/
 
               file Cu.pz-d-rrkjus.UPF: wavefunction(s)  3D renormalized
 
     G-vector sticks info
     --------------------
     sticks:   dense  smooth     PW     G-vecs:    dense   smooth      PW
     Sum         475     151     61                 6735     1243     331
 


     bravais-lattice index     =            2
     lattice parameter (alat)  =       6.7300  a.u.
     unit-cell volume          =      76.2053 (a.u.)^3
     number of atoms/cell      =            1
     number of atomic types    =            1
     number of electrons       =        11.00
     number of Kohn-Sham states=            8
     kinetic-energy cutoff     =      25.0000  Ry
     charge density cutoff     =     300.0000  Ry
     Exchange-correlation      =  SLA  PZ   NOGX NOGC ( 1  1  0  0 0 0)

     celldm(1)=   6.730000  celldm(2)=   0.000000  celldm(3)=   0.000000
     celldm(4)=   0.000000  celldm(5)=   0.000000  celldm(6)=   0.000000

     crystal axes: (cart. coord. in units of alat)
               a(1) = (  -0.500000   0.000000   0.500000 )  
               a(2) = (   0.000000   0.500000   0.500000 )  
               a(3) = (  -0.500000   0.500000   0.000000 )  

     reciprocal axes: (cart. coord. in units 2 pi/alat)
               b(1) = ( -1.000000 -1.000000  1.000000 )  
               b(2) = (  1.000000  1.000000  1.000000 )  
               b(3) = ( -1.000000  1.000000 -1.000000 )  


     PseudoPot. # 1 for Cu read from file:
     /home/georgeyumnam/Software/q-e-master/pseudo/Cu.pz-d-rrkjus.UPF
     MD5 check sum: fd38ae683e239c95a66f426e1f8e5fc7
     Pseudo is Ultrasoft, Zval = 11.0
     Generated by new atomic code, or converted to UPF format
     Using radial grid of  899 points,  3 beta functions with: 
                l(1) =   2
                l(2) =   2
                l(3) =   1
     Q(r) pseudized with 0 coefficients 


     atomic species   valence    mass     pseudopotential
        Cu            11.00    63.55000     Cu( 1.00)

     48 Sym. Ops., with inversion, found



   Cartesian axes

     site n.     atom                  positions (alat units)
         1           Cu  tau(   1) = (   0.0000000   0.0000000   0.0000000  )

     number of k points=    28
                       cart. coord. in units 2pi/alat
        k(    1) = (   0.0000000   0.0000000   0.0000000), wk =   0.0714286
        k(    2) = (   0.0000000   0.0000000   0.1000000), wk =   0.0714286
        k(    3) = (   0.0000000   0.0000000   0.2000000), wk =   0.0714286
        k(    4) = (   0.0000000   0.0000000   0.3000000), wk =   0.0714286
        k(    5) = (   0.0000000   0.0000000   0.4000000), wk =   0.0714286
        k(    6) = (   0.0000000   0.0000000   0.5000000), wk =   0.0714286
        k(    7) = (   0.0000000   0.0000000   0.6000000), wk =   0.0714286
        k(    8) = (   0.0000000   0.0000000   0.7000000), wk =   0.0714286
        k(    9) = (   0.0000000   0.0000000   0.8000000), wk =   0.0714286
        k(   10) = (   0.0000000   0.0000000   0.9000000), wk =   0.0714286
        k(   11) = (   0.0000000   0.0000000   1.0000000), wk =   0.0714286
        k(   12) = (   0.0000000   0.0000000   0.0000000), wk =   0.0714286
        k(   13) = (   0.0000000   0.1000000   0.1000000), wk =   0.0714286
        k(   14) = (   0.0000000   0.2000000   0.2000000), wk =   0.0714286
        k(   15) = (   0.0000000   0.3000000   0.3000000), wk =   0.0714286
        k(   16) = (   0.0000000   0.4000000   0.4000000), wk =   0.0714286
        k(   17) = (   0.0000000   0.5000000   0.5000000), wk =   0.0714286
        k(   18) = (   0.0000000   0.6000000   0.6000000), wk =   0.0714286
        k(   19) = (   0.0000000   0.7000000   0.7000000), wk =   0.0714286
        k(   20) = (   0.0000000   0.8000000   0.8000000), wk =   0.0714286
        k(   21) = (   0.0000000   0.9000000   0.9000000), wk =   0.0714286
        k(   22) = (   0.0000000   1.0000000   1.0000000), wk =   0.0714286
        k(   23) = (   0.0000000   0.0000000   0.0000000), wk =   0.0714286
        k(   24) = (   0.1000000   0.1000000   0.1000000), wk =   0.0714286
        k(   25) = (   0.2000000   0.2000000   0.2000000), wk =   0.0714286
        k(   26) = (   0.3000000   0.3000000   0.3000000), wk =   0.0714286
        k(   27) = (   0.4000000   0.4000000   0.4000000), wk =   0.0714286
        k(   28) = (   0.5000000   0.5000000   0.5000000), wk =   0.0714286

     Dense  grid:     6735 G-vectors     FFT dimensions: (  27,  27,  27)

     Smooth grid:     1243 G-vectors     FFT dimensions: (  15,  15,  15)

     Largest allocated arrays     est. size (Mb)     dimensions
        Kohn-Sham Wavefunctions         0.02 Mb     (     170,    8)
        NL pseudopotentials             0.03 Mb     (     170,   13)
        Each V/rho on FFT grid          0.30 Mb     (   19683)
        Each G-vector array             0.05 Mb     (    6735)
        G-vector shells                 0.00 Mb     (     118)
     Largest temporary arrays     est. size (Mb)     dimensions
        Each subspace H/S matrix        0.00 Mb     (       8,    8)
        Each <psi_i|beta_j> matrix      0.00 Mb     (      13,    8)

     The potential is recalculated from file :
     /home/georgeyumnam/Software/q-e-master/tempdir/cu.save/charge-density.dat

     Starting wfc are    6 randomized atomic wfcs +    2 random wfc

     Band Structure Calculation
     CG style diagonalization

     ethr =  9.09E-09,  avg # of iterations = 19.6

     total cpu time spent up to now is        1.0 secs

     End of band structure calculation

          k = 0.0000 0.0000 0.0000 (   169 PWs)   bands (ev):

     4.9902  11.2013  11.2013  11.2013  12.0902  12.0902  38.8601  41.0130

          k = 0.0000 0.0000 0.1000 (   169 PWs)   bands (ev):

     5.1157  11.1628  11.2327  11.2327  12.0553  12.1046  38.3442  39.7386

          k = 0.0000 0.0000 0.2000 (   165 PWs)   bands (ev):

     5.4878  11.0518  11.3258  11.3258  11.9570  12.1462  37.3081  37.7399

          k = 0.0000 0.0000 0.3000 (   161 PWs)   bands (ev):

     6.0904  10.8806  11.4770  11.4770  11.8157  12.2112  35.7804  35.7804

          k = 0.0000 0.0000 0.4000 (   161 PWs)   bands (ev):

     6.8872  10.6675  11.6763  11.6789  11.6789  12.2935  33.9668  33.9668

          k = 0.0000 0.0000 0.5000 (   165 PWs)   bands (ev):

     7.7943  10.4349  11.6327  11.9194  11.9194  12.3851  32.3393  32.3393

          k = 0.0000 0.0000 0.6000 (   161 PWs)   bands (ev):

     8.6197  10.2061  11.8840  12.1807  12.1807  12.4773  30.7560  30.9299

          k = 0.0000 0.0000 0.7000 (   162 PWs)   bands (ev):

     9.1027  10.0029  12.4369  12.4369  12.5613  12.6833  27.8377  29.7723

          k = 0.0000 0.0000 0.8000 (   162 PWs)   bands (ev):

     9.2513   9.8437  12.6279  12.6566  12.6566  13.9731  25.1907  28.9042

          k = 0.0000 0.0000 0.9000 (   162 PWs)   bands (ev):

     9.2643   9.7424  12.6709  12.8065  12.8065  15.3576  23.0558  28.3636

          k = 0.0000 0.0000 1.0000 (   150 PWs)   bands (ev):

     9.2586   9.7080  12.6858  12.8601  12.8601  16.0644  22.1078  28.1796

          k = 0.0000 0.0000 0.0000 (   169 PWs)   bands (ev):

     4.9902  11.2013  11.2013  11.2013  12.0902  12.0902  38.8601  41.0130

          k = 0.0000 0.1000 0.1000 (   169 PWs)   bands (ev):

     5.2404  11.1423  11.2474  11.2595  12.0461  12.0977  37.2038  38.2087

          k = 0.0000 0.2000 0.2000 (   163 PWs)   bands (ev):

     5.9705  10.9903  11.3704  11.3798  11.9347  12.1711  33.7486  34.5125

          k = 0.0000 0.3000 0.3000 (   160 PWs)   bands (ev):

     7.1061  10.8094  11.3666  11.5819  11.8082  12.4567  30.4007  31.1635

          k = 0.0000 0.4000 0.4000 (   154 PWs)   bands (ev):

     8.4619  10.6806  11.1898  11.7280  11.8290  13.0622  27.3470  28.3088

          k = 0.0000 0.5000 0.5000 (   164 PWs)   bands (ev):

     9.6267  10.6775  10.8947  11.7428  12.0921  14.2039  24.5960  26.0247

          k = 0.0000 0.6000 0.6000 (   166 PWs)   bands (ev):

    10.1518  10.5385  10.8552  11.8732  12.3435  16.1948  22.1393  24.3503

          k = 0.0000 0.7000 0.7000 (   170 PWs)   bands (ev):

    10.0404  10.2353  11.2395  12.1024  12.5596  18.9479  19.9739  23.2572

          k = 0.0000 0.8000 0.8000 (   170 PWs)   bands (ev):

     9.6756   9.9823  11.8182  12.3734  12.7237  18.1225  22.0029  22.8456

          k = 0.0000 0.9000 0.9000 (   162 PWs)   bands (ev):

     9.3741   9.7815  12.4876  12.5979  12.8255  16.6906  22.1916  25.8664

          k = 0.0000 1.0000 1.0000 (   150 PWs)   bands (ev):

     9.2586   9.7080  12.6858  12.8601  12.8601  16.0644  22.1078  28.1796

          k = 0.0000 0.0000 0.0000 (   169 PWs)   bands (ev):

     4.9902  11.2013  11.2013  11.2013  12.0902  12.0902  38.8601  41.0130

          k = 0.1000 0.1000 0.1000 (   168 PWs)   bands (ev):

     5.3641  11.1243  11.2712  11.2712  12.0662  12.0662  35.6738  39.3797

          k = 0.2000 0.2000 0.2000 (   159 PWs)   bands (ev):

     6.4305  10.9740  11.3757  11.3757  12.0914  12.0914  30.1316  38.8251

          k = 0.3000 0.3000 0.3000 (   153 PWs)   bands (ev):

     7.9085  11.0663  11.3281  11.3281  12.3176  12.3176  25.0854  38.0372

          k = 0.4000 0.4000 0.4000 (   162 PWs)   bands (ev):

     8.9122  11.2163  11.2163  12.1713  12.5901  12.5901  20.8495  37.3032

          k = 0.5000 0.5000 0.5000 (   156 PWs)   bands (ev):

     9.1127  11.1669  11.1669  12.7054  12.7054  13.4643  18.6413  37.0213

     Writing output data file cu.save
 
     init_run     :      0.34s CPU      0.34s WALL (       1 calls)
     electrons    :      0.46s CPU      0.48s WALL (       1 calls)

     Called by init_run:
     wfcinit      :      0.00s CPU      0.00s WALL (       1 calls)
     potinit      :      0.00s CPU      0.01s WALL (       1 calls)

     Called by electrons:
     c_bands      :      0.45s CPU      0.48s WALL (       1 calls)
     v_of_rho     :      0.00s CPU      0.00s WALL (       1 calls)
     newd         :      0.01s CPU      0.01s WALL (       1 calls)

     Called by c_bands:
     init_us_2    :      0.00s CPU      0.00s WALL (      28 calls)
     ccgdiagg     :      0.41s CPU      0.43s WALL (      68 calls)
     wfcrot       :      0.04s CPU      0.05s WALL (      68 calls)

     Called by *cgdiagg:
     h_psi        :      0.34s CPU      0.36s WALL (    4069 calls)
     s_psi        :      0.03s CPU      0.03s WALL (    8070 calls)
     cdiaghg      :      0.00s CPU      0.00s WALL (      68 calls)

     Called by h_psi:
     add_vuspsi   :      0.02s CPU      0.02s WALL (    4069 calls)

     General routines
     calbec       :      0.02s CPU      0.03s WALL (    8070 calls)
     fft          :      0.01s CPU      0.01s WALL (       5 calls)
     ffts         :      0.00s CPU      0.00s WALL (       1 calls)
     fftw         :      0.19s CPU      0.18s WALL (    9090 calls)
     interpolate  :      0.00s CPU      0.00s WALL (       1 calls)
     davcio       :      0.00s CPU      0.00s WALL (      28 calls)
 
 
     PWSCF        :     1.10s CPU         1.14s WALL

 
   This run was terminated on:  16:36:22  18Jun2015            

=------------------------------------------------------------------------------=
   JOB DONE.
=------------------------------------------------------------------------------=
