
     Program PWSCF v.5.0.2 (svn rev. 9656) starts on 26Jul2015 at  3: 6:36 

     This program is part of the open-source Quantum ESPRESSO suite
     for quantum simulation of materials; please cite
         "P. Giannozzi et al., J. Phys.:Condens. Matter 21 395502 (2009);
          URL http://www.quantum-espresso.org", 
     in publications or presentations arising from this work. More details at
     http://www.quantum-espresso.org/quote.php

     Parallel version (MPI), running on     4 processors
     R & G space division:  proc/nbgrp/npool/nimage =       4

     Current dimensions of program PWSCF are:
     Max number of different atomic species (ntypx) = 10
     Max number of k-points (npk) =  40000
     Max angular momentum in pseudopotentials (lmaxx) =  3
     Waiting for input...
     Reading input from standard input
               file C.pbe-rrkjus.UPF: wavefunction(s)  2S 2P renormalized

     Subspace diagonalization in iterative solution of the eigenvalue problem:
     a serial algorithm will be used


     Parallelization info
     --------------------
     sticks:   dense  smooth     PW     G-vecs:    dense   smooth      PW
     Min         211     127     37                58589    27672    4567
     Max         212     128     38                58614    27708    4610
     Sum         847     511    151               234415   110781   18391



     bravais-lattice index     =            0
     lattice parameter (alat)  =       4.6500  a.u.
     unit-cell volume          =    1044.8904 (a.u.)^3
     number of atoms/cell      =            2
     number of atomic types    =            1
     number of electrons       =         8.00
     number of Kohn-Sham states=            8
     kinetic-energy cutoff     =      85.0000  Ry
     charge density cutoff     =     560.0000  Ry
     convergence threshold     =      1.0E-08
     mixing beta               =       0.7000
     number of iterations used =            8  plain     mixing
     Exchange-correlation      =  SLA  PW   PBE  PBE ( 1 4 3 4 0)
     EXX-fraction              =        0.00

     celldm(1)=   4.650000  celldm(2)=   0.000000  celldm(3)=   0.000000
     celldm(4)=   0.000000  celldm(5)=   0.000000  celldm(6)=   0.000000

     crystal axes: (cart. coord. in units of alat)
               a(1) = (   1.000000   0.000000   0.000000 )  
               a(2) = (   0.500000   0.866025   0.000000 )  
               a(3) = (   0.000000   0.000000  12.000000 )  

     reciprocal axes: (cart. coord. in units 2 pi/alat)
               b(1) = (  1.000000 -0.577350  0.000000 )  
               b(2) = (  0.000000  1.154701  0.000000 )  
               b(3) = (  0.000000  0.000000  0.083333 )  


     PseudoPot. # 1 for C  read from file:
     ./C.pbe-rrkjus.UPF
     MD5 check sum: 00fb224312de0c5b6853bd333518df6f
     Pseudo is Ultrasoft, Zval =  4.0
     Generated by new atomic code, or converted to UPF format
     Using radial grid of  627 points,  4 beta functions with: 
                l(1) =   0
                l(2) =   0
                l(3) =   1
                l(4) =   1
     Q(r) pseudized with 0 coefficients 


     atomic species   valence    mass     pseudopotential
        C              4.00    12.00000     C ( 1.00)

     24 Sym. Ops., with inversion, found (12 have fractional translation)



   Cartesian axes

     site n.     atom                  positions (alat units)
         1           C   tau(   1) = (   0.0000000   0.0000000   0.0000000  )
         2           C   tau(   2) = (   1.0000000   0.5773503   0.0000000  )

     number of k points=    12  gaussian smearing, width (Ry)=  0.0010
                       cart. coord. in units 2pi/alat
        k(    1) = (   0.0000000   0.0000000   0.0000000), wk =   0.0246914
        k(    2) = (   0.0000000   0.1283001   0.0000000), wk =   0.1481481
        k(    3) = (   0.0000000   0.2566001   0.0000000), wk =   0.1481481
        k(    4) = (   0.0000000   0.3849002   0.0000000), wk =   0.1481481
        k(    5) = (   0.0000000   0.5132002   0.0000000), wk =   0.1481481
        k(    6) = (   0.1111111   0.1924501   0.0000000), wk =   0.1481481
        k(    7) = (   0.1111111   0.3207502   0.0000000), wk =   0.2962963
        k(    8) = (   0.1111111   0.4490502   0.0000000), wk =   0.2962963
        k(    9) = (   0.1111111  -0.5773503   0.0000000), wk =   0.1481481
        k(   10) = (   0.2222222   0.3849002   0.0000000), wk =   0.1481481
        k(   11) = (   0.2222222  -0.6415003   0.0000000), wk =   0.2962963
        k(   12) = (   0.3333333  -0.5773503   0.0000000), wk =   0.0493827

     Dense  grid:   234415 G-vectors     FFT dimensions: (  36,  36, 432)

     Smooth grid:   110781 G-vectors     FFT dimensions: (  27,  27, 360)

     Largest allocated arrays     est. size (Mb)     dimensions
        Kohn-Sham Wavefunctions         0.43 Mb     (   3510,    8)
        NL pseudopotentials             0.86 Mb     (   3510,   16)
        Each V/rho on FFT grid          2.14 Mb     ( 139968)
        Each G-vector array             0.45 Mb     (  58604)
        G-vector shells                 0.13 Mb     (  17383)
     Largest temporary arrays     est. size (Mb)     dimensions
        Auxiliary wavefunctions         1.71 Mb     (   3510,   32)
        Each subspace H/S matrix        0.02 Mb     (  32,  32)
        Each <psi_i|beta_j> matrix      0.00 Mb     (     16,    8)
        Arrays for rho mixing          17.09 Mb     ( 139968,   8)

     Initial potential from superposition of free atoms

     starting charge    7.99989, renormalised to    8.00000

     negative rho (up, down):  0.254E-04 0.000E+00
     Starting wfc are    8 randomized atomic wfcs

     total cpu time spent up to now is        4.0 secs

     per-process dynamical memory:    30.6 Mb

     Self-consistent Calculation

     iteration #  1     ecut=    85.00 Ry     beta=0.70
     Davidson diagonalization with overlap
     ethr =  1.00E-02,  avg # of iterations =  5.6

     negative rho (up, down):  0.176E-04 0.000E+00

     total cpu time spent up to now is       13.4 secs

     total energy              =     -22.75845984 Ry
     Harris-Foulkes estimate   =     -22.88295514 Ry
     estimated scf accuracy    <       0.20661345 Ry

     iteration #  2     ecut=    85.00 Ry     beta=0.70
     Davidson diagonalization with overlap
     ethr =  2.58E-03,  avg # of iterations =  3.9

     negative rho (up, down):  0.170E-04 0.000E+00

     total cpu time spent up to now is       21.7 secs

     total energy              =     -22.78958410 Ry
     Harris-Foulkes estimate   =     -22.78972016 Ry
     estimated scf accuracy    <       0.00250790 Ry

     iteration #  3     ecut=    85.00 Ry     beta=0.70
     Davidson diagonalization with overlap
     ethr =  3.13E-05,  avg # of iterations =  9.4

     negative rho (up, down):  0.186E-04 0.000E+00

     total cpu time spent up to now is       34.0 secs

     total energy              =     -22.78994432 Ry
     Harris-Foulkes estimate   =     -22.78991369 Ry
     estimated scf accuracy    <       0.00013692 Ry

     iteration #  4     ecut=    85.00 Ry     beta=0.70
     Davidson diagonalization with overlap
     ethr =  1.71E-06,  avg # of iterations =  4.1

     negative rho (up, down):  0.187E-04 0.000E+00

     total cpu time spent up to now is       42.3 secs

     total energy              =     -22.78994959 Ry
     Harris-Foulkes estimate   =     -22.78994878 Ry
     estimated scf accuracy    <       0.00000095 Ry

     iteration #  5     ecut=    85.00 Ry     beta=0.70
     Davidson diagonalization with overlap
     ethr =  1.19E-08,  avg # of iterations =  2.2

     negative rho (up, down):  0.187E-04 0.000E+00

     total cpu time spent up to now is       50.2 secs

     total energy              =     -22.78994991 Ry
     Harris-Foulkes estimate   =     -22.78994991 Ry
     estimated scf accuracy    <       0.00000003 Ry

     iteration #  6     ecut=    85.00 Ry     beta=0.70
     Davidson diagonalization with overlap
     ethr =  3.39E-10,  avg # of iterations =  2.0

     negative rho (up, down):  0.186E-04 0.000E+00

     total cpu time spent up to now is       57.5 secs

     End of self-consistent calculation

          k = 0.0000 0.0000 0.0000 ( 13771 PWs)   bands (ev):

   -22.4912 -10.6016  -6.0245  -6.0245   0.3036   1.0417   1.2090   1.5613

          k = 0.0000 0.1283 0.0000 ( 13748 PWs)   bands (ev):

   -22.1994 -10.2525  -7.1344  -6.5976   0.7010   1.4457   1.6176   1.9678

          k = 0.0000 0.2566 0.0000 ( 13830 PWs)   bands (ev):

   -21.3296  -9.6757  -9.2231  -7.7537   1.8925   2.6524   2.8434   3.1846

          k = 0.0000 0.3849 0.0000 ( 13850 PWs)   bands (ev):

   -19.9029 -12.6020  -8.7748  -7.5939   1.9771   3.8614   4.6832   4.8233

          k = 0.0000 0.5132 0.0000 ( 13876 PWs)   bands (ev):

   -17.9946 -15.3472  -9.3388  -5.7455  -0.7264   4.5365   6.6300   7.4633

          k = 0.1111 0.1925 0.0000 ( 13815 PWs)   bands (ev):

   -21.6186  -9.5625  -8.6841  -7.7426   1.4964   2.2522   2.4349   2.7801

          k = 0.1111 0.3208 0.0000 ( 13826 PWs)   bands (ev):

   -20.4702 -11.1286  -9.1254  -8.2234   3.0826   3.2313   3.8723   4.0693

          k = 0.1111 0.4491 0.0000 ( 13843 PWs)   bands (ev):

   -18.7921 -13.8869 -10.0051  -6.3914   0.3825   5.4224   5.9056   6.2464

          k = 0.1111-0.5774 0.0000 ( 13848 PWs)   bands (ev):

   -17.0421 -16.0364 -10.3048  -5.0517  -1.3457   5.7305   8.4413   8.6130

          k = 0.2222 0.3849 0.0000 ( 13831 PWs)   bands (ev):

   -19.0680 -12.6386 -11.1395  -6.6378   1.0116   5.0526   5.8112   6.1121

          k = 0.2222-0.6415 0.0000 ( 13839 PWs)   bands (ev):

   -17.2152 -14.7543 -12.1361  -4.7570  -1.2324   7.7315   7.9483   8.5919

          k = 0.3333-0.5774 0.0000 ( 13881 PWs)   bands (ev):

   -15.5522 -15.5522 -13.5625  -2.9488  -2.9488   7.6897   9.9571   9.9571

     the Fermi energy is    -2.9488 ev

!    total energy              =     -22.78994992 Ry
     Harris-Foulkes estimate   =     -22.78994992 Ry
     estimated scf accuracy    <          6.0E-10 Ry

     The total energy is the sum of the following terms:

     one-electron contribution =    -353.75991778 Ry
     hartree contribution      =     177.89034755 Ry
     xc contribution           =      -7.02459326 Ry
     ewald contribution        =     160.10424143 Ry
     smearing contrib. (-TS)   =      -0.00002786 Ry

     convergence has been achieved in   6 iterations

     Writing output data file graphene.save

     init_run     :      3.74s CPU      3.93s WALL (       1 calls)
     electrons    :     50.46s CPU     53.47s WALL (       1 calls)

     Called by init_run:
     wfcinit      :      1.37s CPU      1.45s WALL (       1 calls)
     potinit      :      1.06s CPU      1.11s WALL (       1 calls)

     Called by electrons:
     c_bands      :     34.33s CPU     36.09s WALL (       6 calls)
     sum_band     :      9.48s CPU     10.17s WALL (       6 calls)
     v_of_rho     :      2.77s CPU      3.09s WALL (       7 calls)
     newd         :      3.28s CPU      3.41s WALL (       7 calls)
     mix_rho      :      0.42s CPU      0.48s WALL (       6 calls)

     Called by c_bands:
     init_us_2    :      0.56s CPU      0.61s WALL (     156 calls)
     cegterg      :     33.64s CPU     35.33s WALL (      72 calls)

     Called by *egterg:
     h_psi        :     31.32s CPU     32.89s WALL (     411 calls)
     s_psi        :      0.44s CPU      0.44s WALL (     411 calls)
     g_psi        :      0.15s CPU      0.15s WALL (     327 calls)
     cdiaghg      :      0.18s CPU      0.18s WALL (     399 calls)

     Called by h_psi:
     add_vuspsi   :      0.42s CPU      0.43s WALL (     411 calls)

     General routines
     calbec       :      0.67s CPU      0.69s WALL (     483 calls)
     fft          :      2.71s CPU      3.01s WALL (     107 calls)
     ffts         :      0.17s CPU      0.17s WALL (      13 calls)
     fftw         :     26.47s CPU     28.27s WALL (    4326 calls)
     interpolate  :      0.62s CPU      0.63s WALL (      13 calls)
     davcio       :      0.15s CPU      0.18s WALL (     228 calls)

     Parallel routines
     fft_scatter  :     14.16s CPU     15.90s WALL (    4446 calls)

     PWSCF        :    54.47s CPU        57.72s WALL


   This run was terminated on:   3: 7:34  26Jul2015            

=------------------------------------------------------------------------------=
   JOB DONE.
=------------------------------------------------------------------------------=
