
     Program PWSCF v.5.0.2 (svn rev. 9656) starts on 12Jul2015 at  0:28: 4 

     This program is part of the open-source Quantum ESPRESSO suite
     for quantum simulation of materials; please cite
         "P. Giannozzi et al., J. Phys.:Condens. Matter 21 395502 (2009);
          URL http://www.quantum-espresso.org", 
     in publications or presentations arising from this work. More details at
     http://www.quantum-espresso.org/quote.php

     Parallel version (MPI), running on     4 processors
     R & G space division:  proc/nbgrp/npool/nimage =       4

     Current dimensions of program PWSCF are:
     Max number of different atomic species (ntypx) = 10
     Max number of k-points (npk) =  40000
     Max angular momentum in pseudopotentials (lmaxx) =  3
     Waiting for input...
     Reading input from standard input
               file Al.pbe-n-kjpaw_psl.0.1.UPF: wavefunction(s)  3S renormalized

     Subspace diagonalization in iterative solution of the eigenvalue problem:
     a serial algorithm will be used


     Parallelization info
     --------------------
     sticks:   dense  smooth     PW     G-vecs:    dense   smooth      PW
     Min         124     124     40                 1779     1779     322
     Max         126     126     42                 1781     1781     323
     Sum         499     499    163                 7119     7119    1291



     bravais-lattice index     =            2
     lattice parameter (alat)  =       7.6524  a.u.
     unit-cell volume          =     112.0316 (a.u.)^3
     number of atoms/cell      =            1
     number of atomic types    =            1
     number of electrons       =         3.00
     number of Kohn-Sham states=            6
     kinetic-energy cutoff     =      60.0000  Ry
     charge density cutoff     =     240.0000  Ry
     convergence threshold     =      1.0E-07
     mixing beta               =       0.7000
     number of iterations used =            8  plain     mixing
     Exchange-correlation      =  SLA  PW   PBX  PBC ( 1 4 3 4 0)
     EXX-fraction              =        0.00

     celldm(1)=   7.652445  celldm(2)=   0.000000  celldm(3)=   0.000000
     celldm(4)=   0.000000  celldm(5)=   0.000000  celldm(6)=   0.000000

     crystal axes: (cart. coord. in units of alat)
               a(1) = (  -0.500000   0.000000   0.500000 )  
               a(2) = (   0.000000   0.500000   0.500000 )  
               a(3) = (  -0.500000   0.500000   0.000000 )  

     reciprocal axes: (cart. coord. in units 2 pi/alat)
               b(1) = ( -1.000000 -1.000000  1.000000 )  
               b(2) = (  1.000000  1.000000  1.000000 )  
               b(3) = ( -1.000000  1.000000 -1.000000 )  


     PseudoPot. # 1 for Al read from file:
     ./Al.pbe-n-kjpaw_psl.0.1.UPF
     MD5 check sum: 023d9faf819c76fc4df1f064efe7b7b2
     Pseudo is Projector augmented-wave + core cor, Zval =  3.0
     Generated using "atomic" code by A. Dal Corso  v.5.0.2 svn rev. 9415
     Shape of augmentation charge: PSQ
     Using radial grid of 1135 points,  4 beta functions with: 
                l(1) =   0
                l(2) =   0
                l(3) =   1
                l(4) =   1
     Q(r) pseudized with 0 coefficients 


     atomic species   valence    mass     pseudopotential
        Al             3.00    26.98154     Al( 1.00)

     48 Sym. Ops., with inversion, found



   Cartesian axes

     site n.     atom                  positions (alat units)
         1           Al  tau(   1) = (   0.0000000   0.0000000   0.0000000  )

     number of k points=    84  gaussian smearing, width (Ry)=  0.0030
                       cart. coord. in units 2pi/alat
        k(    1) = (   0.0000000   0.0000000   0.0000000), wk =   0.0009103
        k(    2) = (  -0.0769231   0.0769231  -0.0769231), wk =   0.0072827
        k(    3) = (  -0.1538462   0.1538462  -0.1538462), wk =   0.0072827
        k(    4) = (  -0.2307692   0.2307692  -0.2307692), wk =   0.0072827
        k(    5) = (  -0.3076923   0.3076923  -0.3076923), wk =   0.0072827
        k(    6) = (  -0.3846154   0.3846154  -0.3846154), wk =   0.0072827
        k(    7) = (  -0.4615385   0.4615385  -0.4615385), wk =   0.0072827
        k(    8) = (   0.0000000   0.1538462   0.0000000), wk =   0.0054620
        k(    9) = (  -0.0769231   0.2307692  -0.0769231), wk =   0.0218480
        k(   10) = (  -0.1538462   0.3076923  -0.1538462), wk =   0.0218480
        k(   11) = (  -0.2307692   0.3846154  -0.2307692), wk =   0.0218480
        k(   12) = (  -0.3076923   0.4615385  -0.3076923), wk =   0.0218480
        k(   13) = (  -0.3846154   0.5384615  -0.3846154), wk =   0.0218480
        k(   14) = (   0.5384615  -0.3846154   0.5384615), wk =   0.0218480
        k(   15) = (   0.4615385  -0.3076923   0.4615385), wk =   0.0218480
        k(   16) = (   0.3846154  -0.2307692   0.3846154), wk =   0.0218480
        k(   17) = (   0.3076923  -0.1538462   0.3076923), wk =   0.0218480
        k(   18) = (   0.2307692  -0.0769231   0.2307692), wk =   0.0218480
        k(   19) = (   0.1538462   0.0000000   0.1538462), wk =   0.0109240
        k(   20) = (   0.0000000   0.3076923   0.0000000), wk =   0.0054620
        k(   21) = (  -0.0769231   0.3846154  -0.0769231), wk =   0.0218480
        k(   22) = (  -0.1538462   0.4615385  -0.1538462), wk =   0.0218480
        k(   23) = (  -0.2307692   0.5384615  -0.2307692), wk =   0.0218480
        k(   24) = (  -0.3076923   0.6153846  -0.3076923), wk =   0.0218480
        k(   25) = (   0.6153846  -0.3076923   0.6153846), wk =   0.0218480
        k(   26) = (   0.5384615  -0.2307692   0.5384615), wk =   0.0218480
        k(   27) = (   0.4615385  -0.1538462   0.4615385), wk =   0.0218480
        k(   28) = (   0.3846154  -0.0769231   0.3846154), wk =   0.0218480
        k(   29) = (   0.3076923   0.0000000   0.3076923), wk =   0.0109240
        k(   30) = (   0.0000000   0.4615385   0.0000000), wk =   0.0054620
        k(   31) = (  -0.0769231   0.5384615  -0.0769231), wk =   0.0218480
        k(   32) = (  -0.1538462   0.6153846  -0.1538462), wk =   0.0218480
        k(   33) = (  -0.2307692   0.6923077  -0.2307692), wk =   0.0218480
        k(   34) = (   0.6923077  -0.2307692   0.6923077), wk =   0.0218480
        k(   35) = (   0.6153846  -0.1538462   0.6153846), wk =   0.0218480
        k(   36) = (   0.5384615  -0.0769231   0.5384615), wk =   0.0218480
        k(   37) = (   0.4615385   0.0000000   0.4615385), wk =   0.0109240
        k(   38) = (   0.0000000   0.6153846   0.0000000), wk =   0.0054620
        k(   39) = (  -0.0769231   0.6923077  -0.0769231), wk =   0.0218480
        k(   40) = (  -0.1538462   0.7692308  -0.1538462), wk =   0.0218480
        k(   41) = (   0.7692308  -0.1538462   0.7692308), wk =   0.0218480
        k(   42) = (   0.6923077  -0.0769231   0.6923077), wk =   0.0218480
        k(   43) = (   0.6153846   0.0000000   0.6153846), wk =   0.0109240
        k(   44) = (   0.0000000   0.7692308   0.0000000), wk =   0.0054620
        k(   45) = (  -0.0769231   0.8461538  -0.0769231), wk =   0.0218480
        k(   46) = (   0.8461538  -0.0769231   0.8461538), wk =   0.0218480
        k(   47) = (   0.7692308   0.0000000   0.7692308), wk =   0.0109240
        k(   48) = (   0.0000000   0.9230769   0.0000000), wk =   0.0054620
        k(   49) = (   0.9230769   0.0000000   0.9230769), wk =   0.0109240
        k(   50) = (  -0.1538462   0.3076923   0.0000000), wk =   0.0218480
        k(   51) = (  -0.2307692   0.3846154  -0.0769231), wk =   0.0436959
        k(   52) = (  -0.3076923   0.4615385  -0.1538462), wk =   0.0436959
        k(   53) = (  -0.3846154   0.5384615  -0.2307692), wk =   0.0436959
        k(   54) = (   0.5384615  -0.3846154   0.6923077), wk =   0.0436959
        k(   55) = (  -0.1538462   0.4615385   0.0000000), wk =   0.0218480
        k(   56) = (  -0.2307692   0.5384615  -0.0769231), wk =   0.0436959
        k(   57) = (  -0.3076923   0.6153846  -0.1538462), wk =   0.0436959
        k(   58) = (   0.6153846  -0.3076923   0.7692308), wk =   0.0436959
        k(   59) = (   0.5384615  -0.2307692   0.6923077), wk =   0.0436959
        k(   60) = (   0.4615385  -0.1538462   0.6153846), wk =   0.0436959
        k(   61) = (   0.3846154  -0.0769231   0.5384615), wk =   0.0436959
        k(   62) = (   0.3076923   0.0000000   0.4615385), wk =   0.0218480
        k(   63) = (  -0.1538462   0.6153846   0.0000000), wk =   0.0218480
        k(   64) = (  -0.2307692   0.6923077  -0.0769231), wk =   0.0436959
        k(   65) = (   0.6923077  -0.2307692   0.8461538), wk =   0.0436959
        k(   66) = (   0.6153846  -0.1538462   0.7692308), wk =   0.0436959
        k(   67) = (   0.5384615  -0.0769231   0.6923077), wk =   0.0436959
        k(   68) = (   0.4615385   0.0000000   0.6153846), wk =   0.0218480
        k(   69) = (  -0.1538462   0.7692308   0.0000000), wk =   0.0218480
        k(   70) = (   0.7692308  -0.1538462   0.9230769), wk =   0.0436959
        k(   71) = (   0.6923077  -0.0769231   0.8461538), wk =   0.0436959
        k(   72) = (   0.6153846   0.0000000   0.7692308), wk =   0.0218480
        k(   73) = (   0.8461538  -0.0769231   1.0000000), wk =   0.0218480
        k(   74) = (   0.7692308   0.0000000   0.9230769), wk =   0.0218480
        k(   75) = (  -0.3076923   0.6153846   0.0000000), wk =   0.0218480
        k(   76) = (   0.6153846  -0.3076923   0.9230769), wk =   0.0436959
        k(   77) = (   0.5384615  -0.2307692   0.8461538), wk =   0.0436959
        k(   78) = (   0.6923077  -0.2307692   1.0000000), wk =   0.0218480
        k(   79) = (   0.6153846  -0.1538462   0.9230769), wk =   0.0436959
        k(   80) = (   0.5384615  -0.0769231   0.8461538), wk =   0.0436959
        k(   81) = (   0.4615385   0.0000000   0.7692308), wk =   0.0218480
        k(   82) = (   0.6923077  -0.0769231   1.0000000), wk =   0.0218480
        k(   83) = (   0.6153846   0.0000000   0.9230769), wk =   0.0218480
        k(   84) = (   0.5384615  -0.0769231   1.0000000), wk =   0.0218480

     Dense  grid:     7119 G-vectors     FFT dimensions: (  27,  27,  27)

     Largest allocated arrays     est. size (Mb)     dimensions
        Kohn-Sham Wavefunctions         0.02 Mb     (    224,    6)
        NL pseudopotentials             0.03 Mb     (    224,    8)
        Each V/rho on FFT grid          0.08 Mb     (   5103)
        Each G-vector array             0.01 Mb     (   1781)
        G-vector shells                 0.00 Mb     (    122)
     Largest temporary arrays     est. size (Mb)     dimensions
        Auxiliary wavefunctions         0.08 Mb     (    224,   24)
        Each subspace H/S matrix        0.01 Mb     (  24,  24)
        Each <psi_i|beta_j> matrix      0.00 Mb     (      8,    6)
        Arrays for rho mixing           0.62 Mb     (   5103,   8)

     Initial potential from superposition of free atoms

     starting charge    2.99771, renormalised to    3.00000
     Starting wfc are    4 randomized atomic wfcs
     Checking if some PAW data can be deallocated... 

     total cpu time spent up to now is        1.2 secs

     per-process dynamical memory:     9.1 Mb

     Self-consistent Calculation

     iteration #  1     ecut=    60.00 Ry     beta=0.70
     Davidson diagonalization with overlap
     ethr =  1.00E-02,  avg # of iterations =  4.9

     Threshold (ethr) on eigenvalues was too large:
     Diagonalizing with lowered threshold

     Davidson diagonalization with overlap
     ethr =  1.96E-04,  avg # of iterations =  2.1

     total cpu time spent up to now is        3.8 secs

     total energy              =     -39.50270366 Ry
     Harris-Foulkes estimate   =     -39.50409544 Ry
     estimated scf accuracy    <       0.00559221 Ry

     iteration #  2     ecut=    60.00 Ry     beta=0.70
     Davidson diagonalization with overlap
     ethr =  1.86E-04,  avg # of iterations =  1.1

     total cpu time spent up to now is        4.7 secs

     total energy              =     -39.50266709 Ry
     Harris-Foulkes estimate   =     -39.50277213 Ry
     estimated scf accuracy    <       0.00040468 Ry

     iteration #  3     ecut=    60.00 Ry     beta=0.70
     Davidson diagonalization with overlap
     ethr =  1.35E-05,  avg # of iterations =  1.9

     total cpu time spent up to now is        5.6 secs

     total energy              =     -39.50268772 Ry
     Harris-Foulkes estimate   =     -39.50268827 Ry
     estimated scf accuracy    <       0.00000134 Ry

     iteration #  4     ecut=    60.00 Ry     beta=0.70
     Davidson diagonalization with overlap
     ethr =  4.46E-08,  avg # of iterations =  3.0

     total cpu time spent up to now is        6.8 secs

     End of self-consistent calculation

          k = 0.0000 0.0000 0.0000 (   893 PWs)   bands (ev):

    -3.2532  20.4318  20.4318  21.8448  21.8448  21.8448

          k =-0.0769 0.0769-0.0769 (   887 PWs)   bands (ev):

    -3.0931  18.0666  19.9089  19.9089  22.5234  22.6120

          k =-0.1538 0.1538-0.1538 (   899 PWs)   bands (ev):

    -2.6135  14.9702  19.2368  19.2368  22.3983  23.7490

          k =-0.2308 0.2308-0.2308 (   896 PWs)   bands (ev):

    -1.8179  11.9858  18.7765  18.7765  22.1706  22.8747

          k =-0.3077 0.3077-0.3077 (   890 PWs)   bands (ev):

    -0.7111   9.2094  18.5710  18.5710  21.5456  21.5456

          k =-0.3846 0.3846-0.3846 (   872 PWs)   bands (ev):

     0.6997   6.6766  18.6301  18.6301  20.4245  20.4245

          k =-0.4615 0.4615-0.4615 (   874 PWs)   bands (ev):

     2.4042   4.4091  18.9551  18.9551  19.5625  19.5625

          k = 0.0000 0.1538 0.0000 (   889 PWs)   bands (ev):

    -3.0397  18.8573  18.8574  19.1704  21.3549  23.7286

          k =-0.0769 0.2308-0.0769 (   896 PWs)   bands (ev):

    -2.6667  16.0702  18.0262  19.2512  21.6762  23.0442

          k =-0.1538 0.3077-0.1538 (   889 PWs)   bands (ev):

    -1.9766  13.0688  17.4536  18.9197  21.1165  23.2844

          k =-0.2308 0.3846-0.2308 (   882 PWs)   bands (ev):

    -0.9739  10.2317  17.1478  18.6772  19.6412  23.6390

          k =-0.3077 0.4615-0.3077 (   876 PWs)   bands (ev):

     0.3351   7.6219  17.1120  18.3826  18.6828  22.4700

          k =-0.3846 0.5385-0.3846 (   877 PWs)   bands (ev):

     1.9416   5.2676  17.3473  17.4066  18.9405  21.5317

          k = 0.5385-0.3846 0.5385 (   875 PWs)   bands (ev):

     3.1629   3.8588  16.7006  17.8543  19.4800  20.8513

          k = 0.4615-0.3077 0.4615 (   873 PWs)   bands (ev):

     1.3739   6.0218  16.2739  18.6305  20.2929  20.4385

          k = 0.3846-0.2308 0.3846 (   881 PWs)   bands (ev):

    -0.1348   8.4623  16.1287  19.6520  20.3128  21.3662

          k = 0.3077-0.1538 0.3077 (   882 PWs)   bands (ev):

    -1.3425  11.1470  16.2671  20.3289  21.0364  22.6587

          k = 0.2308-0.0769 0.2308 (   897 PWs)   bands (ev):

    -2.2417  14.0268  16.7005  20.6755  22.3564  23.1831

          k = 0.1538 0.0000 0.1538 (   899 PWs)   bands (ev):

    -2.8265  16.7792  17.6531  20.8468  22.0877  23.0639

          k = 0.0000 0.3077 0.0000 (   881 PWs)   bands (ev):

    -2.4009  17.0801  17.0801  17.2879  20.2505  20.9338

          k =-0.0769 0.3846-0.0769 (   882 PWs)   bands (ev):

    -1.8179  14.3532  16.4050  17.6857  19.0254  20.5692

          k =-0.1538 0.4615-0.1538 (   875 PWs)   bands (ev):

    -0.9214  11.5112  16.0021  17.3229  17.6599  22.1290

          k =-0.2308 0.5385-0.2308 (   876 PWs)   bands (ev):

     0.2826   8.8471  15.8717  15.9898  17.5766  24.1253

          k =-0.3077 0.6154-0.3077 (   879 PWs)   bands (ev):

     1.7860   6.4193  14.8943  16.0142  17.7691  23.7661

          k = 0.6154-0.3077 0.6154 (   879 PWs)   bands (ev):

     3.5652   4.2672  14.0807  16.4299  18.2404  23.0108

          k = 0.5385-0.2308 0.5385 (   871 PWs)   bands (ev):

     2.3527   5.6617  13.5577  17.1186  18.9939  22.5120

          k = 0.4615-0.1538 0.4615 (   883 PWs)   bands (ev):

     0.7514   7.9914  13.3363  18.0780  20.0202  22.2721

          k = 0.3846-0.0769 0.3846 (   880 PWs)   bands (ev):

    -0.5538  10.5283  13.4527  19.2987  21.2959  22.2631

          k = 0.3077 0.0000 0.3077 (   887 PWs)   bands (ev):

    -1.5536  12.8951  14.2500  20.7443  22.0870  22.7620

          k = 0.0000 0.4615 0.0000 (   881 PWs)   bands (ev):

    -1.3426  15.6320  15.6320  15.6626  17.0123  19.0599

          k =-0.0769 0.5385-0.0769 (   870 PWs)   bands (ev):

    -0.5541  12.9924  15.1340  15.2397  16.3642  19.4292

          k =-0.1538 0.6154-0.1538 (   879 PWs)   bands (ev):

     0.5422  10.3282  13.7527  14.9099  16.4754  21.1528

          k =-0.2308 0.6923-0.2308 (   878 PWs)   bands (ev):

     1.9382   7.8494  12.5434  14.9595  16.6335  23.3955

          k = 0.6923-0.2308 0.6923 (   870 PWs)   bands (ev):

     3.6195   5.6158  11.6249  15.2828  17.0336  25.4233

          k = 0.6154-0.1538 0.6154 (   869 PWs)   bands (ev):

     3.6273   5.5923  11.0129  15.8800  17.7125  24.8510

          k = 0.5385-0.0769 0.5385 (   877 PWs)   bands (ev):

     1.9411   7.7607  10.7542  16.7511  18.6692  24.5217

          k = 0.4615 0.0000 0.4615 (   881 PWs)   bands (ev):

     0.5432   9.7471  11.2375  17.8938  19.8830  24.8842

          k = 0.0000 0.6154 0.0000 (   866 PWs)   bands (ev):

     0.1252  13.3556  14.4161  14.5421  14.5421  18.0223

          k =-0.0769 0.6923-0.0769 (   875 PWs)   bands (ev):

     1.1114  11.6967  12.0694  14.2250  15.3691  18.5511

          k =-0.1538 0.7692-0.1538 (   883 PWs)   bands (ev):

     2.3954   9.5100  10.4660  14.1819  15.6780  20.4641

          k = 0.7692-0.1538 0.7692 (   877 PWs)   bands (ev):

     3.9596   7.2410   9.4350  14.4126  16.0406  22.9145

          k = 0.6923-0.0769 0.6923 (   883 PWs)   bands (ev):

     5.1743   5.7867   8.7663  14.9174  16.6470  25.5635

          k = 0.6154 0.0000 0.6154 (   877 PWs)   bands (ev):

     3.4255   7.3853   8.8558  15.6969  17.5272  27.1173

          k = 0.0000 0.7692 0.0000 (   882 PWs)   bands (ev):

     1.9842  10.0234  13.5774  13.8153  13.8153  17.2790

          k =-0.0769 0.8462-0.0769 (   881 PWs)   bands (ev):

     3.1476   8.5971  11.4382  13.6799  14.7681  18.0003

          k = 0.8462-0.0769 0.8462 (   879 PWs)   bands (ev):

     4.5572   7.5036   9.1780  13.8181  15.2724  20.1099

          k = 0.7692 0.0000 0.7692 (   878 PWs)   bands (ev):

     5.8138   6.8646   7.3894  14.2304  15.8397  22.7492

          k = 0.0000 0.9231 0.0000 (   878 PWs)   bands (ev):

     4.1560   7.1122  13.1565  13.4522  13.4522  16.8936

          k = 0.9231 0.0000 0.9231 (   874 PWs)   bands (ev):

     5.0296   6.3473  11.2397  13.4983  14.5669  17.8131

          k =-0.1538 0.3077 0.0000 (   893 PWs)   bands (ev):

    -2.1886  14.8529  15.9516  19.8231  20.9199  21.7096

          k =-0.2308 0.3846-0.0769 (   881 PWs)   bands (ev):

    -1.3953  12.2853  15.0870  19.3270  19.9638  22.7624

          k =-0.3077 0.4615-0.1538 (   881 PWs)   bands (ev):

    -0.2918   9.5747  14.8107  17.8930  19.8755  22.9700

          k =-0.3846 0.5385-0.2308 (   879 PWs)   bands (ev):

     1.1145   7.0661  14.8463  16.7210  19.9740  21.8719

          k = 0.5385-0.3846 0.6923 (   878 PWs)   bands (ev):

     2.8126   4.8118  15.1577  15.8408  20.3057  21.0141

          k =-0.1538 0.4615 0.0000 (   879 PWs)   bands (ev):

    -1.1319  13.2913  14.4873  17.2139  18.3745  20.4511

          k =-0.2308 0.5385-0.0769 (   878 PWs)   bands (ev):

    -0.1352  10.9125  13.7642  15.6564  18.7495  21.7486

          k =-0.3077 0.6154-0.1538 (   878 PWs)   bands (ev):

     1.1654   8.3834  13.6335  14.3960  18.8774  23.6580

          k = 0.6154-0.3077 0.7692 (   879 PWs)   bands (ev):

     2.7599   6.0623  13.2653  13.9790  19.1802  23.2658

          k = 0.5385-0.2308 0.6923 (   878 PWs)   bands (ev):

     3.9693   4.6667  12.5838  14.4634  19.7332  22.5871

          k = 0.4615-0.1538 0.6154 (   878 PWs)   bands (ev):

     2.1979   6.7931  12.1765  15.2666  20.5410  22.1473

          k = 0.3846-0.0769 0.5385 (   877 PWs)   bands (ev):

     0.6991   9.1471  12.1111  16.3554  21.5270  21.9644

          k = 0.3077 0.0000 0.4615 (   876 PWs)   bands (ev):

    -0.5014  11.3228  12.7576  17.7165  21.4151  22.5453

          k =-0.1538 0.6154 0.0000 (   871 PWs)   bands (ev):

     0.3338  12.1131  13.2263  13.7202  17.2314  19.4626

          k =-0.2308 0.6923-0.0769 (   877 PWs)   bands (ev):

     1.5254   9.9211  12.0931  12.9099  17.8142  20.9333

          k = 0.6923-0.2308 0.8462 (   876 PWs)   bands (ev):

     3.0098   7.5824  11.0205  12.9555  18.1436  23.1987

          k = 0.6154-0.1538 0.7692 (   877 PWs)   bands (ev):

     4.7523   5.4729  10.2165  13.3646  18.6439  24.9327

          k = 0.5385-0.0769 0.6923 (   880 PWs)   bands (ev):

     3.5764   6.7664   9.7598  14.0769  19.3924  24.5056

          k = 0.4615 0.0000 0.6154 (   878 PWs)   bands (ev):

     1.9920   8.5658  10.0523  15.0775  20.3919  23.7780

          k =-0.1538 0.7692 0.0000 (   874 PWs)   bands (ev):

     2.1900  10.2084  11.3251  12.6582  16.4593  18.7583

          k = 0.7692-0.1538 0.9231 (   880 PWs)   bands (ev):

     3.5545   8.9308   9.4107  12.2829  17.2398  20.4178

          k = 0.6923-0.0769 0.8462 (   879 PWs)   bands (ev):

     5.1555   7.1506   8.1851  12.5596  17.7662  22.8888

          k = 0.6154 0.0000 0.7692 (   883 PWs)   bands (ev):

     5.2339   6.5991   8.0448  13.1698  18.4597  25.5432

          k = 0.8462-0.0769 1.0000 (   878 PWs)   bands (ev):

     4.3568   7.3128  10.9305  12.2688  16.0717  18.3941

          k = 0.7692 0.0000 0.9231 (   875 PWs)   bands (ev):

     5.4216   6.7532   9.1586  12.0860  17.0468  20.2422

          k =-0.3077 0.6154 0.0000 (   872 PWs)   bands (ev):

     0.9579  10.1418  11.5856  14.1807  20.3498  22.0115

          k = 0.6154-0.3077 0.9231 (   873 PWs)   bands (ev):

     2.3498   8.1547  11.1115  12.9856  21.0175  22.8979

          k = 0.5385-0.2308 0.8462 (   872 PWs)   bands (ev):

     4.0255   5.9931  11.3180  12.1252  21.4228  22.2253

          k = 0.6923-0.2308 1.0000 (   880 PWs)   bands (ev):

     2.8054   9.3540  10.5115  11.1733  19.5980  21.4176

          k = 0.6154-0.1538 0.9231 (   886 PWs)   bands (ev):

     4.3643   7.5528   9.7324  10.6776  20.4839  23.2633

          k = 0.5385-0.0769 0.8462 (   879 PWs)   bands (ev):

     5.5546   6.1829   9.1335  11.0740  21.1320  24.0327

          k = 0.4615 0.0000 0.7692 (   882 PWs)   bands (ev):

     3.8248   7.7788   9.2310  11.8720  21.9296  23.0890

          k = 0.6923-0.0769 1.0000 (   887 PWs)   bands (ev):

     4.9576   7.9000   8.9601  10.5037  19.2165  21.0944

          k = 0.6154 0.0000 0.9231 (   882 PWs)   bands (ev):

     6.2064   7.2351   7.7091  10.4136  20.3007  23.1600

          k = 0.5385-0.0769 1.0000 (   884 PWs)   bands (ev):

     5.9522   7.3854   8.5354   9.3131  22.7233  23.5395

     the Fermi energy is     7.7651 ev

!    total energy              =     -39.50268928 Ry
     Harris-Foulkes estimate   =     -39.50268934 Ry
     estimated scf accuracy    <       0.00000009 Ry

     total all-electron energy =      -485.645471 Ry

     The total energy is the sum of the following terms:

     one-electron contribution =       3.14735722 Ry
     hartree contribution      =       0.00572777 Ry
     xc contribution           =      -3.02682680 Ry
     ewald contribution        =      -5.39223171 Ry
     one-center paw contrib.   =     -34.23667789 Ry
     smearing contrib. (-TS)   =      -0.00003787 Ry

     convergence has been achieved in   4 iterations

     Writing output data file Al.save

     init_run     :      0.65s CPU      0.79s WALL (       1 calls)
     electrons    :      5.27s CPU      5.59s WALL (       1 calls)

     Called by init_run:
     wfcinit      :      0.31s CPU      0.33s WALL (       1 calls)
     potinit      :      0.06s CPU      0.06s WALL (       1 calls)

     Called by electrons:
     c_bands      :      4.26s CPU      4.52s WALL (       5 calls)
     sum_band     :      0.74s CPU      0.78s WALL (       5 calls)
     v_of_rho     :      0.04s CPU      0.04s WALL (       5 calls)
     newd         :      0.02s CPU      0.02s WALL (       5 calls)
     mix_rho      :      0.02s CPU      0.02s WALL (       5 calls)

     Called by c_bands:
     init_us_2    :      0.15s CPU      0.13s WALL (     924 calls)
     cegterg      :      4.14s CPU      4.38s WALL (     420 calls)

     Called by *egterg:
     h_psi        :      3.70s CPU      3.95s WALL (    1594 calls)
     s_psi        :      0.04s CPU      0.04s WALL (    1594 calls)
     g_psi        :      0.03s CPU      0.03s WALL (    1090 calls)
     cdiaghg      :      0.37s CPU      0.35s WALL (    1426 calls)

     Called by h_psi:
     add_vuspsi   :      0.03s CPU      0.04s WALL (    1594 calls)

     General routines
     calbec       :      0.06s CPU      0.08s WALL (    2014 calls)
     fft          :      0.03s CPU      0.03s WALL (      67 calls)
     fftw         :      4.05s CPU      4.10s WALL (   16868 calls)
     davcio       :      0.01s CPU      0.03s WALL (    1344 calls)

     Parallel routines
     fft_scatter  :      0.66s CPU      0.87s WALL (   16935 calls)

     PAW routines
     PAW_pot      :      0.23s CPU      0.24s WALL (       5 calls)
     PAW_ddot     :      0.02s CPU      0.02s WALL (      12 calls)
     PAW_symme    :      0.00s CPU      0.00s WALL (      10 calls)

     PWSCF        :     6.65s CPU         7.13s WALL


   This run was terminated on:   0:28:11  12Jul2015            

=------------------------------------------------------------------------------=
   JOB DONE.
=------------------------------------------------------------------------------=
