
     Program PWSCF v.5.0.2 (svn rev. 9656) starts on 26Jul2015 at  3:24:29 

     This program is part of the open-source Quantum ESPRESSO suite
     for quantum simulation of materials; please cite
         "P. Giannozzi et al., J. Phys.:Condens. Matter 21 395502 (2009);
          URL http://www.quantum-espresso.org", 
     in publications or presentations arising from this work. More details at
     http://www.quantum-espresso.org/quote.php

     Parallel version (MPI), running on     4 processors
     R & G space division:  proc/nbgrp/npool/nimage =       4

     Current dimensions of program PWSCF are:
     Max number of different atomic species (ntypx) = 10
     Max number of k-points (npk) =  40000
     Max angular momentum in pseudopotentials (lmaxx) =  3
     Waiting for input...
     Reading input from standard input
               file C.pbe-rrkjus.UPF: wavefunction(s)  2S 2P renormalized

     Subspace diagonalization in iterative solution of the eigenvalue problem:
     a serial algorithm will be used


     Parallelization info
     --------------------
     sticks:   dense  smooth     PW     G-vecs:    dense   smooth      PW
     Min         211     133     40                58589    30003    5122
     Max         212     134     41                58614    30038    5159
     Sum         847     535    163               234415   120067   20581



     bravais-lattice index     =            0
     lattice parameter (alat)  =       4.6500  a.u.
     unit-cell volume          =    1044.8904 (a.u.)^3
     number of atoms/cell      =            2
     number of atomic types    =            1
     number of electrons       =         8.00
     number of Kohn-Sham states=            8
     kinetic-energy cutoff     =      90.0000  Ry
     charge density cutoff     =     560.0000  Ry
     convergence threshold     =      1.0E-08
     mixing beta               =       0.7000
     number of iterations used =            8  plain     mixing
     Exchange-correlation      =  SLA  PW   PBE  PBE ( 1 4 3 4 0)
     EXX-fraction              =        0.00

     celldm(1)=   4.650000  celldm(2)=   0.000000  celldm(3)=   0.000000
     celldm(4)=   0.000000  celldm(5)=   0.000000  celldm(6)=   0.000000

     crystal axes: (cart. coord. in units of alat)
               a(1) = (   1.000000   0.000000   0.000000 )  
               a(2) = (   0.500000   0.866025   0.000000 )  
               a(3) = (   0.000000   0.000000  12.000000 )  

     reciprocal axes: (cart. coord. in units 2 pi/alat)
               b(1) = (  1.000000 -0.577350  0.000000 )  
               b(2) = (  0.000000  1.154701  0.000000 )  
               b(3) = (  0.000000  0.000000  0.083333 )  


     PseudoPot. # 1 for C  read from file:
     ./C.pbe-rrkjus.UPF
     MD5 check sum: 00fb224312de0c5b6853bd333518df6f
     Pseudo is Ultrasoft, Zval =  4.0
     Generated by new atomic code, or converted to UPF format
     Using radial grid of  627 points,  4 beta functions with: 
                l(1) =   0
                l(2) =   0
                l(3) =   1
                l(4) =   1
     Q(r) pseudized with 0 coefficients 


     atomic species   valence    mass     pseudopotential
        C              4.00    12.00000     C ( 1.00)

     24 Sym. Ops., with inversion, found (12 have fractional translation)



   Cartesian axes

     site n.     atom                  positions (alat units)
         1           C   tau(   1) = (   0.0000000   0.0000000   0.0000000  )
         2           C   tau(   2) = (   1.0000000   0.5773503   0.0000000  )

     number of k points=    19  gaussian smearing, width (Ry)=  0.0010
                       cart. coord. in units 2pi/alat
        k(    1) = (   0.0000000   0.0000000   0.0000000), wk =   0.0138889
        k(    2) = (   0.0000000   0.0962250   0.0000000), wk =   0.0833333
        k(    3) = (   0.0000000   0.1924501   0.0000000), wk =   0.0833333
        k(    4) = (   0.0000000   0.2886751   0.0000000), wk =   0.0833333
        k(    5) = (   0.0000000   0.3849002   0.0000000), wk =   0.0833333
        k(    6) = (   0.0000000   0.4811252   0.0000000), wk =   0.0833333
        k(    7) = (   0.0000000  -0.5773503   0.0000000), wk =   0.0416667
        k(    8) = (   0.0833333   0.1443376   0.0000000), wk =   0.0833333
        k(    9) = (   0.0833333   0.2405626   0.0000000), wk =   0.1666667
        k(   10) = (   0.0833333   0.3367877   0.0000000), wk =   0.1666667
        k(   11) = (   0.0833333   0.4330127   0.0000000), wk =   0.1666667
        k(   12) = (   0.0833333  -0.6254628   0.0000000), wk =   0.1666667
        k(   13) = (   0.1666667   0.2886751   0.0000000), wk =   0.0833333
        k(   14) = (   0.1666667   0.3849002   0.0000000), wk =   0.1666667
        k(   15) = (   0.1666667  -0.6735753   0.0000000), wk =   0.1666667
        k(   16) = (   0.1666667  -0.5773503   0.0000000), wk =   0.0833333
        k(   17) = (   0.2500000  -0.7216878   0.0000000), wk =   0.0833333
        k(   18) = (   0.2500000  -0.6254628   0.0000000), wk =   0.1666667
        k(   19) = (   0.3333333  -0.5773503   0.0000000), wk =   0.0277778

     Dense  grid:   234415 G-vectors     FFT dimensions: (  36,  36, 432)

     Smooth grid:   120067 G-vectors     FFT dimensions: (  30,  30, 360)

     Largest allocated arrays     est. size (Mb)     dimensions
        Kohn-Sham Wavefunctions         0.47 Mb     (   3838,    8)
        NL pseudopotentials             0.94 Mb     (   3838,   16)
        Each V/rho on FFT grid          2.14 Mb     ( 139968)
        Each G-vector array             0.45 Mb     (  58604)
        G-vector shells                 0.13 Mb     (  17493)
     Largest temporary arrays     est. size (Mb)     dimensions
        Auxiliary wavefunctions         1.87 Mb     (   3838,   32)
        Each subspace H/S matrix        0.02 Mb     (  32,  32)
        Each <psi_i|beta_j> matrix      0.00 Mb     (     16,    8)
        Arrays for rho mixing          17.09 Mb     ( 139968,   8)

     Initial potential from superposition of free atoms

     starting charge    7.99989, renormalised to    8.00000

     negative rho (up, down):  0.254E-04 0.000E+00
     Starting wfc are    8 randomized atomic wfcs

     total cpu time spent up to now is        9.3 secs

     per-process dynamical memory:    31.0 Mb

     Self-consistent Calculation

     iteration #  1     ecut=    90.00 Ry     beta=0.70
     Davidson diagonalization with overlap
     ethr =  1.00E-02,  avg # of iterations =  5.4

     negative rho (up, down):  0.177E-04 0.000E+00

     total cpu time spent up to now is       23.7 secs

     total energy              =     -22.75915952 Ry
     Harris-Foulkes estimate   =     -22.88365652 Ry
     estimated scf accuracy    <       0.20660945 Ry

     iteration #  2     ecut=    90.00 Ry     beta=0.70
     Davidson diagonalization with overlap
     ethr =  2.58E-03,  avg # of iterations =  3.8

     negative rho (up, down):  0.171E-04 0.000E+00

     total cpu time spent up to now is       34.2 secs

     total energy              =     -22.79029788 Ry
     Harris-Foulkes estimate   =     -22.79043236 Ry
     estimated scf accuracy    <       0.00251440 Ry

     iteration #  3     ecut=    90.00 Ry     beta=0.70
     Davidson diagonalization with overlap
     ethr =  3.14E-05,  avg # of iterations = 10.7

     negative rho (up, down):  0.186E-04 0.000E+00

     total cpu time spent up to now is       53.1 secs

     total energy              =     -22.79066247 Ry
     Harris-Foulkes estimate   =     -22.79063189 Ry
     estimated scf accuracy    <       0.00013668 Ry

     iteration #  4     ecut=    90.00 Ry     beta=0.70
     Davidson diagonalization with overlap
     ethr =  1.71E-06,  avg # of iterations =  4.2

     negative rho (up, down):  0.187E-04 0.000E+00

     total cpu time spent up to now is       66.6 secs

     total energy              =     -22.79066801 Ry
     Harris-Foulkes estimate   =     -22.79066717 Ry
     estimated scf accuracy    <       0.00000097 Ry

     iteration #  5     ecut=    90.00 Ry     beta=0.70
     Davidson diagonalization with overlap
     ethr =  1.22E-08,  avg # of iterations =  2.5

     negative rho (up, down):  0.187E-04 0.000E+00

     total cpu time spent up to now is       79.2 secs

     total energy              =     -22.79066834 Ry
     Harris-Foulkes estimate   =     -22.79066833 Ry
     estimated scf accuracy    <       0.00000003 Ry

     iteration #  6     ecut=    90.00 Ry     beta=0.70
     Davidson diagonalization with overlap
     ethr =  3.26E-10,  avg # of iterations =  1.9

     negative rho (up, down):  0.186E-04 0.000E+00

     total cpu time spent up to now is       90.6 secs

     End of self-consistent calculation

          k = 0.0000 0.0000 0.0000 ( 14791 PWs)   bands (ev):

   -22.4915 -10.6018  -6.0248  -6.0248   0.3036   1.0417   1.2090   1.5613

          k = 0.0000 0.0962 0.0000 ( 14892 PWs)   bands (ev):

   -22.3272 -10.4051  -6.6724  -6.3641   0.5271   1.2690   1.4388   1.7900

          k = 0.0000 0.1925 0.0000 ( 14918 PWs)   bands (ev):

   -21.8361  -9.8202  -8.3049  -7.1584   1.1978   1.9499   2.1284   2.4755

          k = 0.0000 0.2887 0.0000 ( 15038 PWs)   bands (ev):

   -21.0241 -10.3998  -8.8664  -8.0401   2.3134   3.0722   3.2776   3.6097

          k = 0.0000 0.3849 0.0000 ( 15086 PWs)   bands (ev):

   -19.9032 -12.6023  -8.7751  -7.5941   1.9769   3.8614   4.6831   4.8230

          k = 0.0000 0.4811 0.0000 ( 15094 PWs)   bands (ev):

   -18.5039 -14.7043  -9.2490  -6.1667  -0.1653   4.5769   5.8803   6.6987

          k = 0.0000-0.5774 0.0000 ( 15084 PWs)   bands (ev):

   -17.2296 -16.2209  -9.4117  -5.3190  -1.2671   4.5016   8.1870   8.3398

          k = 0.0833 0.1443 0.0000 ( 14959 PWs)   bands (ev):

   -21.9995 -10.0141  -7.7020  -7.0428   0.9745   1.7232   1.8985   2.2471

          k = 0.0833 0.2406 0.0000 ( 15020 PWs)   bands (ev):

   -21.3480  -9.4076  -9.2436  -8.0422   1.8686   2.6288   2.8180   3.1606

          k = 0.0833 0.3368 0.0000 ( 15057 PWs)   bands (ev):

   -20.3814 -11.4789  -8.9295  -8.1241   2.9921   3.2050   4.0035   4.1969

          k = 0.0833 0.4330 0.0000 ( 15098 PWs)   bands (ev):

   -19.1184 -13.6023  -9.5650  -6.7401   0.7852   4.9543   5.4308   5.7904

          k = 0.0833-0.6255 0.0000 ( 15083 PWs)   bands (ev):

   -17.6333 -15.5484  -9.8938  -5.4263  -0.9896   5.2355   7.1805   7.9837

          k = 0.1667 0.2887 0.0000 ( 15115 PWs)   bands (ev):

   -20.5419 -10.7335  -9.4061  -8.3035   2.9846   3.4510   3.7558   3.9672

          k = 0.1667 0.3849 0.0000 ( 15123 PWs)   bands (ev):

   -19.4319 -12.4604 -10.4621  -7.0464   1.4971   4.5376   5.3149   5.5759

          k = 0.1667-0.6736 0.0000 ( 15129 PWs)   bands (ev):

   -18.0527 -14.3740 -11.0370  -5.6150  -0.4215   6.4990   7.1428   7.2352

          k = 0.1667-0.5774 0.0000 ( 15093 PWs)   bands (ev):

   -16.8087 -15.8184 -11.2215  -4.7191  -1.4933   7.0362   8.6863   8.7476

          k = 0.2500-0.7217 0.0000 ( 15143 PWs)   bands (ev):

   -18.2011 -13.4909 -11.9499  -5.6994  -0.1223   6.2906   6.9520   7.4141

          k = 0.2500-0.6255 0.0000 ( 15098 PWs)   bands (ev):

   -16.7741 -14.9165 -12.6566  -4.3091  -1.6472   7.9506   8.3872   9.2932

          k = 0.3333-0.5774 0.0000 ( 15087 PWs)   bands (ev):

   -15.5525 -15.5525 -13.5627  -2.9490  -2.9490   7.6897   9.9569   9.9569

     the Fermi energy is    -2.9490 ev

!    total energy              =     -22.79066835 Ry
     Harris-Foulkes estimate   =     -22.79066835 Ry
     estimated scf accuracy    <          5.3E-10 Ry

     The total energy is the sum of the following terms:

     one-electron contribution =    -353.76052606 Ry
     hartree contribution      =     177.89019778 Ry
     xc contribution           =      -7.02456582 Ry
     ewald contribution        =     160.10424143 Ry
     smearing contrib. (-TS)   =      -0.00001567 Ry

     convergence has been achieved in   6 iterations

     Writing output data file graphene.save

     init_run     :      5.23s CPU      9.15s WALL (       1 calls)
     electrons    :     78.70s CPU     81.26s WALL (       1 calls)

     Called by init_run:
     wfcinit      :      2.73s CPU      5.25s WALL (       1 calls)
     potinit      :      1.09s CPU      1.69s WALL (       1 calls)

     Called by electrons:
     c_bands      :     59.91s CPU     61.69s WALL (       6 calls)
     sum_band     :     13.22s CPU     13.65s WALL (       6 calls)
     v_of_rho     :      2.45s CPU      2.76s WALL (       7 calls)
     newd         :      2.65s CPU      2.88s WALL (       7 calls)
     mix_rho      :      0.38s CPU      0.39s WALL (       6 calls)

     Called by c_bands:
     init_us_2    :      0.71s CPU      0.84s WALL (     247 calls)
     cegterg      :     58.87s CPU     60.49s WALL (     114 calls)

     Called by *egterg:
     h_psi        :     56.28s CPU     60.04s WALL (     676 calls)
     s_psi        :      0.65s CPU      0.64s WALL (     676 calls)
     g_psi        :      0.28s CPU      0.30s WALL (     543 calls)
     cdiaghg      :      0.29s CPU      0.30s WALL (     657 calls)

     Called by h_psi:
     add_vuspsi   :      0.64s CPU      0.66s WALL (     676 calls)

     General routines
     calbec       :      0.91s CPU      0.95s WALL (     790 calls)
     fft          :      2.25s CPU      2.65s WALL (     107 calls)
     ffts         :      0.16s CPU      0.18s WALL (      13 calls)
     fftw         :     53.57s CPU     57.39s WALL (    6894 calls)
     interpolate  :      0.51s CPU      0.55s WALL (      13 calls)
     davcio       :      0.20s CPU      0.26s WALL (     361 calls)

     Parallel routines
     fft_scatter  :     17.97s CPU     21.30s WALL (    7014 calls)

     PWSCF        :  1m24.25s CPU     1m30.88s WALL


   This run was terminated on:   3:26: 0  26Jul2015            

=------------------------------------------------------------------------------=
   JOB DONE.
=------------------------------------------------------------------------------=
