
     Program PWSCF v.5.0.2 (svn rev. 9656) starts on 26Jul2015 at  1:35:41 

     This program is part of the open-source Quantum ESPRESSO suite
     for quantum simulation of materials; please cite
         "P. Giannozzi et al., J. Phys.:Condens. Matter 21 395502 (2009);
          URL http://www.quantum-espresso.org", 
     in publications or presentations arising from this work. More details at
     http://www.quantum-espresso.org/quote.php

     Parallel version (MPI), running on     4 processors
     R & G space division:  proc/nbgrp/npool/nimage =       4

     Current dimensions of program PWSCF are:
     Max number of different atomic species (ntypx) = 10
     Max number of k-points (npk) =  40000
     Max angular momentum in pseudopotentials (lmaxx) =  3
     Waiting for input...
     Reading input from standard input
               file C.pbe-rrkjus.UPF: wavefunction(s)  2S 2P renormalized

     Subspace diagonalization in iterative solution of the eigenvalue problem:
     a serial algorithm will be used


     Parallelization info
     --------------------
     sticks:   dense  smooth     PW     G-vecs:    dense   smooth      PW
     Min         211     108     31                59991    21194    3626
     Max         212     109     32                60054    21262    3655
     Sum         847     433    127               240141    84863   14549



     bravais-lattice index     =            0
     lattice parameter (alat)  =       4.6900  a.u.
     unit-cell volume          =    1072.0879 (a.u.)^3
     number of atoms/cell      =            2
     number of atomic types    =            1
     number of electrons       =         8.00
     number of Kohn-Sham states=            8
     kinetic-energy cutoff     =      70.0000  Ry
     charge density cutoff     =     560.0000  Ry
     convergence threshold     =      1.0E-08
     mixing beta               =       0.7000
     number of iterations used =            8  plain     mixing
     Exchange-correlation      =  SLA  PW   PBE  PBE ( 1 4 3 4 0)
     EXX-fraction              =        0.00

     celldm(1)=   4.690000  celldm(2)=   0.000000  celldm(3)=   0.000000
     celldm(4)=   0.000000  celldm(5)=   0.000000  celldm(6)=   0.000000

     crystal axes: (cart. coord. in units of alat)
               a(1) = (   1.000000   0.000000   0.000000 )  
               a(2) = (   0.500000   0.866025   0.000000 )  
               a(3) = (   0.000000   0.000000  12.000000 )  

     reciprocal axes: (cart. coord. in units 2 pi/alat)
               b(1) = (  1.000000 -0.577350  0.000000 )  
               b(2) = (  0.000000  1.154701  0.000000 )  
               b(3) = (  0.000000  0.000000  0.083333 )  


     PseudoPot. # 1 for C  read from file:
     ./C.pbe-rrkjus.UPF
     MD5 check sum: 00fb224312de0c5b6853bd333518df6f
     Pseudo is Ultrasoft, Zval =  4.0
     Generated by new atomic code, or converted to UPF format
     Using radial grid of  627 points,  4 beta functions with: 
                l(1) =   0
                l(2) =   0
                l(3) =   1
                l(4) =   1
     Q(r) pseudized with 0 coefficients 


     atomic species   valence    mass     pseudopotential
        C              4.00    12.00000     C ( 1.00)

     24 Sym. Ops., with inversion, found (12 have fractional translation)



   Cartesian axes

     site n.     atom                  positions (alat units)
         1           C   tau(   1) = (   0.0000000   0.0000000   0.0000000  )
         2           C   tau(   2) = (   1.0000000   0.5773503   0.0000000  )

     number of k points=    14  gaussian smearing, width (Ry)=  0.0010
                       cart. coord. in units 2pi/alat
        k(    1) = (   0.0000000   0.0000000   0.0000000), wk =   0.0200000
        k(    2) = (   0.0000000   0.1154701   0.0000000), wk =   0.1200000
        k(    3) = (   0.0000000   0.2309401   0.0000000), wk =   0.1200000
        k(    4) = (   0.0000000   0.3464102   0.0000000), wk =   0.1200000
        k(    5) = (   0.0000000   0.4618802   0.0000000), wk =   0.1200000
        k(    6) = (   0.0000000  -0.5773503   0.0000000), wk =   0.0600000
        k(    7) = (   0.1000000   0.1732051   0.0000000), wk =   0.1200000
        k(    8) = (   0.1000000   0.2886751   0.0000000), wk =   0.2400000
        k(    9) = (   0.1000000   0.4041452   0.0000000), wk =   0.2400000
        k(   10) = (   0.1000000  -0.6350853   0.0000000), wk =   0.2400000
        k(   11) = (   0.2000000   0.3464102   0.0000000), wk =   0.1200000
        k(   12) = (   0.2000000  -0.6928203   0.0000000), wk =   0.2400000
        k(   13) = (   0.2000000  -0.5773503   0.0000000), wk =   0.1200000
        k(   14) = (   0.3000000  -0.6350853   0.0000000), wk =   0.1200000

     Dense  grid:   240141 G-vectors     FFT dimensions: (  36,  36, 432)

     Smooth grid:    84863 G-vectors     FFT dimensions: (  25,  25, 300)

     Largest allocated arrays     est. size (Mb)     dimensions
        Kohn-Sham Wavefunctions         0.34 Mb     (   2763,    8)
        NL pseudopotentials             0.67 Mb     (   2763,   16)
        Each V/rho on FFT grid          2.14 Mb     ( 139968)
        Each G-vector array             0.46 Mb     (  60052)
        G-vector shells                 0.14 Mb     (  17769)
     Largest temporary arrays     est. size (Mb)     dimensions
        Auxiliary wavefunctions         1.35 Mb     (   2763,   32)
        Each subspace H/S matrix        0.02 Mb     (  32,  32)
        Each <psi_i|beta_j> matrix      0.00 Mb     (     16,    8)
        Arrays for rho mixing          17.09 Mb     ( 139968,   8)

     Initial potential from superposition of free atoms

     starting charge    7.99989, renormalised to    8.00000

     negative rho (up, down):  0.249E-04 0.000E+00
     Starting wfc are    8 randomized atomic wfcs

     total cpu time spent up to now is        4.0 secs

     per-process dynamical memory:    31.0 Mb

     Self-consistent Calculation

     iteration #  1     ecut=    70.00 Ry     beta=0.70
     Davidson diagonalization with overlap
     ethr =  1.00E-02,  avg # of iterations =  5.3

     negative rho (up, down):  0.176E-04 0.000E+00

     total cpu time spent up to now is       12.3 secs

     total energy              =     -22.76171716 Ry
     Harris-Foulkes estimate   =     -22.87667512 Ry
     estimated scf accuracy    <       0.19242786 Ry

     iteration #  2     ecut=    70.00 Ry     beta=0.70
     Davidson diagonalization with overlap
     ethr =  2.41E-03,  avg # of iterations =  5.3

     negative rho (up, down):  0.169E-04 0.000E+00

     total cpu time spent up to now is       19.5 secs

     total energy              =     -22.79051296 Ry
     Harris-Foulkes estimate   =     -22.79064372 Ry
     estimated scf accuracy    <       0.00244348 Ry

     iteration #  3     ecut=    70.00 Ry     beta=0.70
     Davidson diagonalization with overlap
     ethr =  3.05E-05,  avg # of iterations = 10.1

     negative rho (up, down):  0.185E-04 0.000E+00

     total cpu time spent up to now is       29.4 secs

     total energy              =     -22.79083147 Ry
     Harris-Foulkes estimate   =     -22.79080353 Ry
     estimated scf accuracy    <       0.00013885 Ry

     iteration #  4     ecut=    70.00 Ry     beta=0.70
     Davidson diagonalization with overlap
     ethr =  1.74E-06,  avg # of iterations =  4.5

     negative rho (up, down):  0.186E-04 0.000E+00

     total cpu time spent up to now is       36.3 secs

     total energy              =     -22.79083653 Ry
     Harris-Foulkes estimate   =     -22.79083581 Ry
     estimated scf accuracy    <       0.00000081 Ry

     iteration #  5     ecut=    70.00 Ry     beta=0.70
     Davidson diagonalization with overlap
     ethr =  1.01E-08,  avg # of iterations =  2.3

     negative rho (up, down):  0.185E-04 0.000E+00

     total cpu time spent up to now is       42.8 secs

     total energy              =     -22.79083683 Ry
     Harris-Foulkes estimate   =     -22.79083682 Ry
     estimated scf accuracy    <       0.00000002 Ry

     iteration #  6     ecut=    70.00 Ry     beta=0.70
     Davidson diagonalization with overlap
     ethr =  2.99E-10,  avg # of iterations =  2.0

     negative rho (up, down):  0.185E-04 0.000E+00

     total cpu time spent up to now is       48.7 secs

     End of self-consistent calculation

          k = 0.0000 0.0000 0.0000 ( 10637 PWs)   bands (ev):

   -22.3840 -10.5281  -6.1300  -6.1300   0.2845   1.0178   1.1847   1.5295

          k = 0.0000 0.1155 0.0000 ( 10619 PWs)   bands (ev):

   -22.1511 -10.2509  -7.0344  -6.5919   0.6011   1.3395   1.5101   1.8531

          k = 0.0000 0.2309 0.0000 ( 10593 PWs)   bands (ev):

   -21.4562  -9.4309  -9.1828  -7.5848   1.5503   2.3014   2.4861   2.8227

          k = 0.0000 0.3464 0.0000 ( 10601 PWs)   bands (ev):

   -20.3124 -11.7592  -8.5529  -8.1142   2.6726   3.1247   3.9284   4.1123

          k = 0.0000 0.4619 0.0000 ( 10635 PWs)   bands (ev):

   -18.7550 -14.2955  -9.2084  -6.4637   0.0705   4.2652   5.3430   6.1447

          k = 0.0000-0.5774 0.0000 ( 10564 PWs)   bands (ev):

   -17.2381 -16.1552  -9.4369  -5.3671  -1.3774   4.1521   8.0288   8.1836

          k = 0.1000 0.1732 0.0000 ( 10565 PWs)   bands (ev):

   -21.6872  -9.7020  -8.3671  -7.5164   1.2345   1.9817   2.1608   2.5000

          k = 0.1000 0.2887 0.0000 ( 10599 PWs)   bands (ev):

   -20.7678 -10.4970  -8.7352  -8.6293   2.4989   3.2511   3.4622   3.7356

          k = 0.1000 0.4041 0.0000 ( 10616 PWs)   bands (ev):

   -19.4147 -12.9679  -9.6364  -7.1140   1.2032   4.3796   5.1769   5.4017

          k = 0.1000-0.6351 0.0000 ( 10634 PWs)   bands (ev):

   -17.7108 -15.3055 -10.1049  -5.5070  -1.0097   5.1795   6.8799   7.6549

          k = 0.2000 0.3464 0.0000 ( 10618 PWs)   bands (ev):

   -19.6383 -11.9576 -10.4562  -7.3413   1.7559   4.0731   4.8381   5.0890

          k = 0.2000-0.6928 0.0000 ( 10602 PWs)   bands (ev):

   -18.1104 -13.9170 -11.5142  -5.7027  -0.3942   6.2442   6.9231   7.3652

          k = 0.2000-0.5774 0.0000 ( 10570 PWs)   bands (ev):

   -16.6369 -15.6192 -11.8168  -4.5228  -1.7640   7.5351   8.2397   8.7966

          k = 0.3000-0.6351 0.0000 ( 10558 PWs)   bands (ev):

   -16.5104 -14.8486 -13.1024  -4.0528  -2.0547   7.6622   8.5741   9.7229

     the Fermi energy is    -2.3104 ev

!    total energy              =     -22.79083683 Ry
     Harris-Foulkes estimate   =     -22.79083683 Ry
     estimated scf accuracy    <          6.4E-10 Ry

     The total energy is the sum of the following terms:

     one-electron contribution =    -351.05379779 Ry
     hartree contribution      =     176.51214566 Ry
     xc contribution           =      -6.98793154 Ry
     ewald contribution        =     158.73874684 Ry
     smearing contrib. (-TS)   =      -0.00000000 Ry

     convergence has been achieved in   6 iterations

     Writing output data file graphene.save

     init_run     :      3.77s CPU      3.95s WALL (       1 calls)
     electrons    :     42.60s CPU     44.68s WALL (       1 calls)

     Called by init_run:
     wfcinit      :      1.39s CPU      1.44s WALL (       1 calls)
     potinit      :      1.08s CPU      1.11s WALL (       1 calls)

     Called by electrons:
     c_bands      :     26.90s CPU     28.17s WALL (       6 calls)
     sum_band     :      8.59s CPU      8.99s WALL (       6 calls)
     v_of_rho     :      3.00s CPU      3.22s WALL (       7 calls)
     newd         :      3.48s CPU      3.63s WALL (       7 calls)
     mix_rho      :      0.44s CPU      0.46s WALL (       6 calls)

     Called by c_bands:
     init_us_2    :      0.54s CPU      0.60s WALL (     182 calls)
     cegterg      :     26.23s CPU     27.41s WALL (      84 calls)

     Called by *egterg:
     h_psi        :     23.80s CPU     24.91s WALL (     510 calls)
     s_psi        :      0.49s CPU      0.49s WALL (     510 calls)
     g_psi        :      0.13s CPU      0.13s WALL (     412 calls)
     cdiaghg      :      0.22s CPU      0.22s WALL (     496 calls)

     Called by h_psi:
     add_vuspsi   :      0.45s CPU      0.47s WALL (     510 calls)

     General routines
     calbec       :      0.79s CPU      0.82s WALL (     594 calls)
     fft          :      2.88s CPU      3.06s WALL (     107 calls)
     ffts         :      0.10s CPU      0.10s WALL (      13 calls)
     fftw         :     16.21s CPU     17.15s WALL (    5104 calls)
     interpolate  :      0.57s CPU      0.58s WALL (      13 calls)
     davcio       :      0.16s CPU      0.19s WALL (     266 calls)

     Parallel routines
     fft_scatter  :     11.75s CPU     12.70s WALL (    5224 calls)

     PWSCF        :    46.65s CPU        48.95s WALL


   This run was terminated on:   1:36:30  26Jul2015            

=------------------------------------------------------------------------------=
   JOB DONE.
=------------------------------------------------------------------------------=
