
     Program PWSCF v.5.0.2 (svn rev. 9656) starts on 11Jul2015 at 20:22:14 

     This program is part of the open-source Quantum ESPRESSO suite
     for quantum simulation of materials; please cite
         "P. Giannozzi et al., J. Phys.:Condens. Matter 21 395502 (2009);
          URL http://www.quantum-espresso.org", 
     in publications or presentations arising from this work. More details at
     http://www.quantum-espresso.org/quote.php

     Parallel version (MPI), running on     4 processors
     R & G space division:  proc/nbgrp/npool/nimage =       4

     Current dimensions of program PWSCF are:
     Max number of different atomic species (ntypx) = 10
     Max number of k-points (npk) =  40000
     Max angular momentum in pseudopotentials (lmaxx) =  3
     Waiting for input...
     Reading input from standard input
               file Cu.pbe.UPF: wavefunction(s)  4S 3D renormalized

     Subspace diagonalization in iterative solution of the eigenvalue problem:
     a serial algorithm will be used


     Parallelization info
     --------------------
     sticks:   dense  smooth     PW     G-vecs:    dense   smooth      PW
     Min         214     214     63                 4156     4156     682
     Max         217     217     64                 4157     4157     686
     Sum         859     859    253                16625    16625    2733



     bravais-lattice index     =            2
     lattice parameter (alat)  =      10.2000  a.u.
     unit-cell volume          =     265.3020 (a.u.)^3
     number of atoms/cell      =            2
     number of atomic types    =            1
     number of electrons       =        22.00
     number of Kohn-Sham states=           15
     kinetic-energy cutoff     =      60.0000  Ry
     charge density cutoff     =     240.0000  Ry
     convergence threshold     =      1.0E-07
     mixing beta               =       0.7000
     number of iterations used =            8  plain     mixing
     Exchange-correlation      =  SLA  PW   PBX  PBC ( 1 4 3 4 0)
     EXX-fraction              =        0.00

     celldm(1)=  10.200000  celldm(2)=   0.000000  celldm(3)=   0.000000
     celldm(4)=   0.000000  celldm(5)=   0.000000  celldm(6)=   0.000000

     crystal axes: (cart. coord. in units of alat)
               a(1) = (  -0.500000   0.000000   0.500000 )  
               a(2) = (   0.000000   0.500000   0.500000 )  
               a(3) = (  -0.500000   0.500000   0.000000 )  

     reciprocal axes: (cart. coord. in units 2 pi/alat)
               b(1) = ( -1.000000 -1.000000  1.000000 )  
               b(2) = (  1.000000  1.000000  1.000000 )  
               b(3) = ( -1.000000  1.000000 -1.000000 )  


     PseudoPot. # 1 for Cu read from file:
     ./Cu.pbe.UPF
     MD5 check sum: 0c51aa2b3b25e0d1c3270f17c0a46a12
     Pseudo is Projector augmented-wave + core cor, Zval = 11.0
     Generated using "atomic" code by A. Dal Corso  v.5.0.99 svn rev. 10869
     Shape of augmentation charge: BESSEL
     Using radial grid of 1199 points,  6 beta functions with: 
                l(1) =   0
                l(2) =   0
                l(3) =   1
                l(4) =   1
                l(5) =   2
                l(6) =   2
     Q(r) pseudized with 0 coefficients 


     atomic species   valence    mass     pseudopotential
        Cu            11.00    63.54600     Cu( 1.00)

     48 Sym. Ops., with inversion, found (24 have fractional translation)



   Cartesian axes

     site n.     atom                  positions (alat units)
         1           Cu  tau(   1) = (   0.0000000   0.0000000   0.0000000  )
         2           Cu  tau(   2) = (   0.2500000   0.2500000   0.2500000  )

     number of k points=    35  gaussian smearing, width (Ry)=  0.0030
                       cart. coord. in units 2pi/alat
        k(    1) = (   0.0000000   0.0000000   0.0000000), wk =   0.0027435
        k(    2) = (  -0.1111111   0.1111111  -0.1111111), wk =   0.0219479
        k(    3) = (  -0.2222222   0.2222222  -0.2222222), wk =   0.0219479
        k(    4) = (  -0.3333333   0.3333333  -0.3333333), wk =   0.0219479
        k(    5) = (  -0.4444444   0.4444444  -0.4444444), wk =   0.0219479
        k(    6) = (   0.0000000   0.2222222   0.0000000), wk =   0.0164609
        k(    7) = (  -0.1111111   0.3333333  -0.1111111), wk =   0.0658436
        k(    8) = (  -0.2222222   0.4444444  -0.2222222), wk =   0.0658436
        k(    9) = (  -0.3333333   0.5555556  -0.3333333), wk =   0.0658436
        k(   10) = (   0.5555556  -0.3333333   0.5555556), wk =   0.0658436
        k(   11) = (   0.4444444  -0.2222222   0.4444444), wk =   0.0658436
        k(   12) = (   0.3333333  -0.1111111   0.3333333), wk =   0.0658436
        k(   13) = (   0.2222222  -0.0000000   0.2222222), wk =   0.0329218
        k(   14) = (   0.0000000   0.4444444   0.0000000), wk =   0.0164609
        k(   15) = (  -0.1111111   0.5555556  -0.1111111), wk =   0.0658436
        k(   16) = (  -0.2222222   0.6666667  -0.2222222), wk =   0.0658436
        k(   17) = (   0.6666667  -0.2222222   0.6666667), wk =   0.0658436
        k(   18) = (   0.5555556  -0.1111111   0.5555556), wk =   0.0658436
        k(   19) = (   0.4444444   0.0000000   0.4444444), wk =   0.0329218
        k(   20) = (   0.0000000   0.6666667   0.0000000), wk =   0.0164609
        k(   21) = (  -0.1111111   0.7777778  -0.1111111), wk =   0.0658436
        k(   22) = (   0.7777778  -0.1111111   0.7777778), wk =   0.0658436
        k(   23) = (   0.6666667  -0.0000000   0.6666667), wk =   0.0329218
        k(   24) = (   0.0000000   0.8888889   0.0000000), wk =   0.0164609
        k(   25) = (   0.8888889   0.0000000   0.8888889), wk =   0.0329218
        k(   26) = (  -0.2222222   0.4444444   0.0000000), wk =   0.0658436
        k(   27) = (  -0.3333333   0.5555556  -0.1111111), wk =   0.1316872
        k(   28) = (   0.5555556  -0.3333333   0.7777778), wk =   0.1316872
        k(   29) = (  -0.2222222   0.6666667   0.0000000), wk =   0.0658436
        k(   30) = (   0.6666667  -0.2222222   0.8888889), wk =   0.1316872
        k(   31) = (   0.5555556  -0.1111111   0.7777778), wk =   0.1316872
        k(   32) = (   0.4444444   0.0000000   0.6666667), wk =   0.0658436
        k(   33) = (   0.7777778  -0.1111111   1.0000000), wk =   0.0658436
        k(   34) = (   0.6666667  -0.0000000   0.8888889), wk =   0.0658436
        k(   35) = (   0.5555556  -0.1111111   1.0000000), wk =   0.0658436

     Dense  grid:    16625 G-vectors     FFT dimensions: (  36,  36,  36)

     Largest allocated arrays     est. size (Mb)     dimensions
        Kohn-Sham Wavefunctions         0.12 Mb     (    531,   15)
        NL pseudopotentials             0.29 Mb     (    531,   36)
        Each V/rho on FFT grid          0.18 Mb     (  11664)
        Each G-vector array             0.03 Mb     (   4157)
        G-vector shells                 0.00 Mb     (    213)
     Largest temporary arrays     est. size (Mb)     dimensions
        Auxiliary wavefunctions         0.49 Mb     (    531,   60)
        Each subspace H/S matrix        0.05 Mb     (  60,  60)
        Each <psi_i|beta_j> matrix      0.01 Mb     (     36,   15)
        Arrays for rho mixing           1.42 Mb     (  11664,   8)

     Check: negative/imaginary core charge=   -0.000021    0.000000

     Initial potential from superposition of free atoms

     starting charge   21.99954, renormalised to   22.00000
     Starting wfc are   18 randomized atomic wfcs
     Checking if some PAW data can be deallocated... 

     total cpu time spent up to now is        3.0 secs

     per-process dynamical memory:    12.1 Mb

     Self-consistent Calculation

     iteration #  1     ecut=    60.00 Ry     beta=0.70
     Davidson diagonalization with overlap
     ethr =  1.00E-02,  avg # of iterations =  3.7

     Threshold (ethr) on eigenvalues was too large:
     Diagonalizing with lowered threshold

     Davidson diagonalization with overlap
     ethr =  2.14E-05,  avg # of iterations =  4.4

     total cpu time spent up to now is       10.4 secs

     total energy              =    -426.03775342 Ry
     Harris-Foulkes estimate   =    -426.03836440 Ry
     estimated scf accuracy    <       0.00585170 Ry

     iteration #  2     ecut=    60.00 Ry     beta=0.70
     Davidson diagonalization with overlap
     ethr =  2.66E-05,  avg # of iterations =  2.1

     total cpu time spent up to now is       13.7 secs

     total energy              =    -426.03622205 Ry
     Harris-Foulkes estimate   =    -426.04023632 Ry
     estimated scf accuracy    <       0.00865221 Ry

     iteration #  3     ecut=    60.00 Ry     beta=0.70
     Davidson diagonalization with overlap
     ethr =  2.66E-05,  avg # of iterations =  2.2

     total cpu time spent up to now is       17.2 secs

     total energy              =    -426.03833990 Ry
     Harris-Foulkes estimate   =    -426.03910314 Ry
     estimated scf accuracy    <       0.00268084 Ry

     iteration #  4     ecut=    60.00 Ry     beta=0.70
     Davidson diagonalization with overlap
     ethr =  1.22E-05,  avg # of iterations =  1.2

     total cpu time spent up to now is       20.0 secs

     total energy              =    -426.03868191 Ry
     Harris-Foulkes estimate   =    -426.03868234 Ry
     estimated scf accuracy    <       0.00000332 Ry

     iteration #  5     ecut=    60.00 Ry     beta=0.70
     Davidson diagonalization with overlap
     ethr =  1.51E-08,  avg # of iterations =  3.9

     total cpu time spent up to now is       24.5 secs

     total energy              =    -426.03870711 Ry
     Harris-Foulkes estimate   =    -426.03870748 Ry
     estimated scf accuracy    <       0.00000253 Ry

     iteration #  6     ecut=    60.00 Ry     beta=0.70
     Davidson diagonalization with overlap
     ethr =  1.15E-08,  avg # of iterations =  1.0

     total cpu time spent up to now is       27.4 secs

     total energy              =    -426.03870730 Ry
     Harris-Foulkes estimate   =    -426.03870727 Ry
     estimated scf accuracy    <       0.00000056 Ry

     iteration #  7     ecut=    60.00 Ry     beta=0.70
     Davidson diagonalization with overlap
     ethr =  2.54E-09,  avg # of iterations =  1.0

     total cpu time spent up to now is       30.2 secs

     total energy              =    -426.03870726 Ry
     Harris-Foulkes estimate   =    -426.03870732 Ry
     estimated scf accuracy    <       0.00000081 Ry

     iteration #  8     ecut=    60.00 Ry     beta=0.70
     Davidson diagonalization with overlap
     ethr =  2.54E-09,  avg # of iterations =  1.0

     total cpu time spent up to now is       33.2 secs

     total energy              =    -426.03870725 Ry
     Harris-Foulkes estimate   =    -426.03870727 Ry
     estimated scf accuracy    <       0.00000041 Ry

     iteration #  9     ecut=    60.00 Ry     beta=0.70
     Davidson diagonalization with overlap
     ethr =  1.86E-09,  avg # of iterations =  1.0

     total cpu time spent up to now is       36.2 secs

     total energy              =    -426.03870720 Ry
     Harris-Foulkes estimate   =    -426.03870726 Ry
     estimated scf accuracy    <       0.00000030 Ry

     iteration # 10     ecut=    60.00 Ry     beta=0.70
     Davidson diagonalization with overlap
     ethr =  1.38E-09,  avg # of iterations =  1.0

     total cpu time spent up to now is       39.0 secs

     End of self-consistent calculation

          k = 0.0000 0.0000 0.0000 (  2085 PWs)   bands (ev):

     0.6646   3.9679   3.9679   3.9679   3.9908   3.9908   5.0231   5.0231
     5.0231   5.6460   5.6460  16.3784  16.3784  16.3784  17.3225

          k =-0.1111 0.1111-0.1111 (  2079 PWs)   bands (ev):

     0.8534   3.8902   3.8902   3.9720   4.0978   4.0978   4.9849   5.0178
     5.0178   5.6466   5.6466  14.0103  15.6288  15.6288  17.7878

          k =-0.2222 0.2222-0.2222 (  2079 PWs)   bands (ev):

     1.4001   3.8581   3.8581   3.9905   4.1861   4.1861   4.8969   5.0321
     5.0321   5.6404   5.6404  11.2360  14.7620  14.7620  17.5839

          k =-0.3333 0.3333-0.3333 (  2090 PWs)   bands (ev):

     2.2110   3.8859   3.8859   4.0235   4.1842   4.1842   4.8713   5.1097
     5.1097   5.6136   5.6136   8.7872  14.1359  14.1359  17.5207

          k =-0.4444 0.4444-0.4444 (  2066 PWs)   bands (ev):

     2.9432   3.9540   3.9540   4.0228   4.1129   4.1129   5.2063   5.2063
     5.2113   5.5726   5.5726   6.8735  13.8073  13.8073  17.6526

          k = 0.0000 0.2222 0.0000 (  2065 PWs)   bands (ev):

     0.9169   3.8092   3.9784   3.9784   4.0455   4.1615   4.8749   5.0685
     5.0685   5.6012   5.6834  14.6081  14.6081  15.2107  16.4229

          k =-0.1111 0.3333-0.1111 (  2064 PWs)   bands (ev):

     1.3468   3.7544   3.9584   3.9879   4.1357   4.2558   4.7492   5.0950
     5.1208   5.5591   5.7047  12.1945  13.7414  14.6055  16.7379

          k =-0.2222 0.4444-0.2222 (  2079 PWs)   bands (ev):

     2.0811   3.7571   3.9678   4.0022   4.1698   4.2939   4.7037   5.1352
     5.1972   5.5242   5.7049   9.6565  13.2015  13.7199  16.5987

          k =-0.3333 0.5556-0.3333 (  2083 PWs)   bands (ev):

     2.8845   3.8017   3.9817   4.0093   4.1584   4.2357   4.8561   5.2297
     5.3447   5.5353   5.6741   7.5168  12.9354  13.0621  16.4408

          k = 0.5556-0.3333 0.5556 (  2086 PWs)   bands (ev):

     3.1678   3.8544   3.9201   4.0354   4.1366   4.2126   5.0604   5.1413
     5.5756   5.6123   5.7440   6.5270  12.4304  13.3498  16.6304

          k = 0.4444-0.2222 0.4444 (  2076 PWs)   bands (ev):

     2.6322   3.8363   3.9216   4.0345   4.1103   4.2904   4.9147   5.0106
     5.3360   5.5220   5.6770   8.1868  12.2980  14.0272  17.1722

          k = 0.3333-0.1111 0.3333 (  2070 PWs)   bands (ev):

     1.8066   3.7915   3.9307   3.9847   4.1492   4.2988   4.8319   4.9374
     5.2252   5.5427   5.6998  10.4844  12.5563  14.9823  18.0495

          k = 0.2222-0.0000 0.2222 (  2071 PWs)   bands (ev):

     1.1627   3.8095   3.9161   3.9814   4.1189   4.2113   4.8963   4.9598
     5.1200   5.5958   5.6850  13.0195  13.2708  15.9039  17.8573

          k = 0.0000 0.4444 0.0000 (  2069 PWs)   bands (ev):

     1.6556   3.6738   3.9975   3.9975   4.2015   4.3368   4.5386   5.2111
     5.2111   5.4704   5.7427  12.7947  12.7947  13.0060  15.4090

          k =-0.1111 0.5556-0.1111 (  2076 PWs)   bands (ev):

     2.2837   3.6512   3.9925   4.0008   4.2867   4.3729   4.4400   5.2832
     5.3007   5.4210   5.7742  10.6410  12.1710  12.2390  15.5275

          k =-0.2222 0.6667-0.2222 (  2087 PWs)   bands (ev):

     3.0537   3.6758   3.9580   3.9871   4.3112   4.3357   4.5718   5.2003
     5.4905   5.5258   5.8150   8.4562  11.2292  11.9820  15.4683

          k = 0.6667-0.2222 0.6667 (  2075 PWs)   bands (ev):

     3.4798   3.7165   3.9295   3.9621   4.2258   4.3941   4.8343   5.0504
     5.6425   5.6804   6.3561   6.6767  10.4601  12.2744  15.6419

          k = 0.5556-0.1111 0.5556 (  2088 PWs)   bands (ev):

     3.1979   3.8276   3.8485   4.0380   4.1021   4.4536   4.9037   4.9837
     5.5695   5.6416   5.7099   7.9118  10.0764  13.0079  16.1254

          k = 0.4444 0.0000 0.4444 (  2087 PWs)   bands (ev):

     2.4913   3.7915   3.9128   4.0046   4.1155   4.4203   4.8650   4.8735
     5.4312   5.4454   5.7261   9.8673  10.2871  14.0447  16.9344

          k = 0.0000 0.6667 0.0000 (  2080 PWs)   bands (ev):

     2.7933   3.6089   4.0079   4.0079   4.1602   4.4360   4.4715   5.2648
     5.4325   5.4325   5.8559  10.3895  11.4175  11.4175  14.8058

          k =-0.1111 0.7778-0.1111 (  2089 PWs)   bands (ev):

     3.4529   3.6283   3.9133   4.0008   4.1598   4.4969   4.5435   5.1222
     5.5616   5.5741   6.0184   9.0029  10.2429  11.1025  14.8985

          k = 0.7778-0.1111 0.7778 (  2097 PWs)   bands (ev):

     3.6450   3.8175   3.8769   3.9644   4.2545   4.6089   4.6191   4.9491
     5.6621   5.7374   6.5579   7.6450   8.9554  11.3055  15.0210

          k = 0.6667-0.0000 0.6667 (  2079 PWs)   bands (ev):

     3.5756   3.8346   3.9032   3.9340   4.1768   4.6183   4.8349   4.8494
     5.7081   5.7433   6.3188   7.8155   8.4409  11.9896  15.4169

          k = 0.0000 0.8889 0.0000 (  2080 PWs)   bands (ev):

     3.6571   3.8417   3.9686   4.0092   4.0092   4.4632   4.7158   5.0038
     5.6240   5.6240   6.3731   7.9743  10.6391  10.6391  14.5925

          k = 0.8889 0.0000 0.8889 (  2081 PWs)   bands (ev):

     3.6934   3.7598   3.9972   4.0070   4.2967   4.4021   4.8226   4.8555
     5.6628   5.6952   7.0786   7.0847   9.6846  10.7121  14.7090

          k =-0.2222 0.4444 0.0000 (  2065 PWs)   bands (ev):

     1.8764   3.7155   3.9749   3.9902   4.1793   4.3495   4.6211   5.0954
     5.2724   5.4848   5.7328  11.3323  11.6991  14.0139  16.9679

          k =-0.3333 0.5556-0.1111 (  2081 PWs)   bands (ev):

     2.6427   3.7321   3.9248   4.0349   4.1833   4.3886   4.6415   5.1316
     5.3922   5.4778   5.7434   9.1124  11.1837  13.0121  16.9465

          k = 0.5556-0.3333 0.7778 (  2065 PWs)   bands (ev):

     3.2903   3.7605   3.8694   4.0531   4.2032   4.3327   4.8463   5.1025
     5.5903   5.6578   5.8591   7.1469  11.1316  12.2754  16.8155

          k =-0.2222 0.6667 0.0000 (  2074 PWs)   bands (ev):

     2.9409   3.6463   3.9233   4.0286   4.3295   4.3629   4.4778   5.2072
     5.4561   5.4926   5.8391   9.8077  10.5162  11.5052  16.2067

          k = 0.6667-0.2222 0.8889 (  2092 PWs)   bands (ev):

     3.5411   3.6729   3.8472   4.0354   4.3385   4.4380   4.5974   5.0529
     5.6278   5.6770   6.0734   8.1239   9.8426  10.8854  16.3392

          k = 0.5556-0.1111 0.7778 (  2088 PWs)   bands (ev):

     3.6215   3.7475   3.8344   4.0363   4.2618   4.5160   4.7785   4.9206
     5.6970   5.7334   6.5167   7.2074   9.3017  11.1469  16.6335

          k = 0.4444 0.0000 0.6667 (  2087 PWs)   bands (ev):

     3.2861   3.7549   3.8359   4.0633   4.1882   4.5259   4.6548   5.0611
     5.5949   5.6251   5.8079   8.7084   9.2654  11.9580  17.1683

          k = 0.7778-0.1111 1.0000 (  2098 PWs)   bands (ev):

     3.6649   3.7690   3.8956   4.0264   4.2599   4.4667   4.6703   4.9645
     5.6720   5.6728   6.4412   8.0240   9.8828  10.0653  15.8742

          k = 0.6667-0.0000 0.8889 (  2091 PWs)   bands (ev):

     3.6612   3.7551   3.9643   4.0111   4.3280   4.5841   4.7263   4.8113
     5.7106   5.7625   7.1405   7.3472   8.6253  10.3231  16.1433

          k = 0.5556-0.1111 1.0000 (  2098 PWs)   bands (ev):

     3.6859   3.6980   3.9162   4.0408   4.4293   4.5402   4.6403   4.8575
     5.7366   5.7514   6.7508   7.8443   8.8446   9.7234  18.0811

     the Fermi energy is     6.7512 ev

!    total energy              =    -426.03870718 Ry
     Harris-Foulkes estimate   =    -426.03870722 Ry
     estimated scf accuracy    <       0.00000004 Ry

     total all-electron energy =     -6619.798244 Ry

     The total energy is the sum of the following terms:

     one-electron contribution =    -116.82380374 Ry
     hartree contribution      =      57.86488125 Ry
     xc contribution           =     -73.47006292 Ry
     ewald contribution        =    -127.80442421 Ry
     one-center paw contrib.   =    -165.80523984 Ry
     smearing contrib. (-TS)   =      -0.00005773 Ry

     convergence has been achieved in  10 iterations

     Writing output data file Cu.save

     init_run     :      2.05s CPU      2.15s WALL (       1 calls)
     electrons    :     33.92s CPU     36.00s WALL (       1 calls)

     Called by init_run:
     wfcinit      :      1.01s CPU      1.06s WALL (       1 calls)
     potinit      :      0.36s CPU      0.37s WALL (       1 calls)

     Called by electrons:
     c_bands      :     24.07s CPU     25.54s WALL (      11 calls)
     sum_band     :      4.86s CPU      5.25s WALL (      11 calls)
     v_of_rho     :      0.24s CPU      0.24s WALL (      11 calls)
     newd         :      0.54s CPU      0.55s WALL (      11 calls)
     mix_rho      :      0.89s CPU      0.89s WALL (      11 calls)

     Called by c_bands:
     init_us_2    :      0.62s CPU      0.63s WALL (     805 calls)
     cegterg      :     22.52s CPU     23.92s WALL (     385 calls)

     Called by *egterg:
     h_psi        :     19.30s CPU     20.56s WALL (    1207 calls)
     s_psi        :      0.61s CPU      0.59s WALL (    1207 calls)
     g_psi        :      0.16s CPU      0.17s WALL (     787 calls)
     cdiaghg      :      1.30s CPU      1.33s WALL (    1137 calls)

     Called by h_psi:
     add_vuspsi   :      0.55s CPU      0.59s WALL (    1207 calls)

     General routines
     calbec       :      0.92s CPU      0.95s WALL (    1592 calls)
     fft          :      0.12s CPU      0.12s WALL (     145 calls)
     fftw         :     20.57s CPU     20.98s WALL (   35599 calls)
     davcio       :      0.07s CPU      0.11s WALL (    1190 calls)

     Parallel routines
     fft_scatter  :      4.89s CPU      5.27s WALL (   35744 calls)

     PAW routines
     PAW_pot      :      3.64s CPU      3.83s WALL (      11 calls)
     PAW_ddot     :      0.86s CPU      0.86s WALL (     167 calls)
     PAW_symme    :      0.02s CPU      0.02s WALL (      22 calls)

     PWSCF        :    37.01s CPU        39.24s WALL


   This run was terminated on:  20:22:54  11Jul2015            

=------------------------------------------------------------------------------=
   JOB DONE.
=------------------------------------------------------------------------------=
