
     Program PWSCF v.5.0.2 (svn rev. 9656) starts on 26Jul2015 at  1: 2:32 

     This program is part of the open-source Quantum ESPRESSO suite
     for quantum simulation of materials; please cite
         "P. Giannozzi et al., J. Phys.:Condens. Matter 21 395502 (2009);
          URL http://www.quantum-espresso.org", 
     in publications or presentations arising from this work. More details at
     http://www.quantum-espresso.org/quote.php

     Parallel version (MPI), running on     4 processors
     R & G space division:  proc/nbgrp/npool/nimage =       4

     Current dimensions of program PWSCF are:
     Max number of different atomic species (ntypx) = 10
     Max number of k-points (npk) =  40000
     Max angular momentum in pseudopotentials (lmaxx) =  3
     Waiting for input...
     Reading input from standard input
               file C.pbe-rrkjus.UPF: wavefunction(s)  2S 2P renormalized

     Subspace diagonalization in iterative solution of the eigenvalue problem:
     a serial algorithm will be used


     Parallelization info
     --------------------
     sticks:   dense  smooth     PW     G-vecs:    dense   smooth      PW
     Min         214     108     33                61756    21880    3729
     Max         216     109     36                61787    21935    3732
     Sum         859     433    139               247083    87639   14923



     bravais-lattice index     =            0
     lattice parameter (alat)  =       4.7375  a.u.
     unit-cell volume          =    1104.9930 (a.u.)^3
     number of atoms/cell      =            2
     number of atomic types    =            1
     number of electrons       =         8.00
     number of Kohn-Sham states=            8
     kinetic-energy cutoff     =      70.0000  Ry
     charge density cutoff     =     560.0000  Ry
     convergence threshold     =      1.0E-08
     mixing beta               =       0.7000
     number of iterations used =            8  plain     mixing
     Exchange-correlation      =  SLA  PW   PBE  PBE ( 1 4 3 4 0)
     EXX-fraction              =        0.00

     celldm(1)=   4.737500  celldm(2)=   0.000000  celldm(3)=   0.000000
     celldm(4)=   0.000000  celldm(5)=   0.000000  celldm(6)=   0.000000

     crystal axes: (cart. coord. in units of alat)
               a(1) = (   1.000000   0.000000   0.000000 )  
               a(2) = (   0.500000   0.866025   0.000000 )  
               a(3) = (   0.000000   0.000000  12.000000 )  

     reciprocal axes: (cart. coord. in units 2 pi/alat)
               b(1) = (  1.000000 -0.577350  0.000000 )  
               b(2) = (  0.000000  1.154701  0.000000 )  
               b(3) = (  0.000000  0.000000  0.083333 )  


     PseudoPot. # 1 for C  read from file:
     ./C.pbe-rrkjus.UPF
     MD5 check sum: 00fb224312de0c5b6853bd333518df6f
     Pseudo is Ultrasoft, Zval =  4.0
     Generated by new atomic code, or converted to UPF format
     Using radial grid of  627 points,  4 beta functions with: 
                l(1) =   0
                l(2) =   0
                l(3) =   1
                l(4) =   1
     Q(r) pseudized with 0 coefficients 


     atomic species   valence    mass     pseudopotential
        C              4.00    12.00000     C ( 1.00)

     24 Sym. Ops., with inversion, found (12 have fractional translation)



   Cartesian axes

     site n.     atom                  positions (alat units)
         1           C   tau(   1) = (   0.0000000   0.0000000   0.0000000  )
         2           C   tau(   2) = (   1.0000000   0.5773503   0.0000000  )

     number of k points=    14  gaussian smearing, width (Ry)=  0.0010
                       cart. coord. in units 2pi/alat
        k(    1) = (   0.0000000   0.0000000   0.0000000), wk =   0.0200000
        k(    2) = (   0.0000000   0.1154701   0.0000000), wk =   0.1200000
        k(    3) = (   0.0000000   0.2309401   0.0000000), wk =   0.1200000
        k(    4) = (   0.0000000   0.3464102   0.0000000), wk =   0.1200000
        k(    5) = (   0.0000000   0.4618802   0.0000000), wk =   0.1200000
        k(    6) = (   0.0000000  -0.5773503   0.0000000), wk =   0.0600000
        k(    7) = (   0.1000000   0.1732051   0.0000000), wk =   0.1200000
        k(    8) = (   0.1000000   0.2886751   0.0000000), wk =   0.2400000
        k(    9) = (   0.1000000   0.4041452   0.0000000), wk =   0.2400000
        k(   10) = (   0.1000000  -0.6350853   0.0000000), wk =   0.2400000
        k(   11) = (   0.2000000   0.3464102   0.0000000), wk =   0.1200000
        k(   12) = (   0.2000000  -0.6928203   0.0000000), wk =   0.2400000
        k(   13) = (   0.2000000  -0.5773503   0.0000000), wk =   0.1200000
        k(   14) = (   0.3000000  -0.6350853   0.0000000), wk =   0.1200000

     Dense  grid:   247083 G-vectors     FFT dimensions: (  36,  36, 432)

     Smooth grid:    87639 G-vectors     FFT dimensions: (  25,  25, 320)

     Largest allocated arrays     est. size (Mb)     dimensions
        Kohn-Sham Wavefunctions         0.34 Mb     (   2820,    8)
        NL pseudopotentials             0.69 Mb     (   2820,   16)
        Each V/rho on FFT grid          2.14 Mb     ( 139968)
        Each G-vector array             0.47 Mb     (  61787)
        G-vector shells                 0.14 Mb     (  18137)
     Largest temporary arrays     est. size (Mb)     dimensions
        Auxiliary wavefunctions         1.38 Mb     (   2820,   32)
        Each subspace H/S matrix        0.02 Mb     (  32,  32)
        Each <psi_i|beta_j> matrix      0.00 Mb     (     16,    8)
        Arrays for rho mixing          17.09 Mb     ( 139968,   8)

     Initial potential from superposition of free atoms

     starting charge    7.99989, renormalised to    8.00000

     negative rho (up, down):  0.255E-04 0.000E+00
     Starting wfc are    8 randomized atomic wfcs

     total cpu time spent up to now is        3.4 secs

     per-process dynamical memory:    37.5 Mb

     Self-consistent Calculation

     iteration #  1     ecut=    70.00 Ry     beta=0.70
     Davidson diagonalization with overlap
     ethr =  1.00E-02,  avg # of iterations =  5.4

     negative rho (up, down):  0.176E-04 0.000E+00

     total cpu time spent up to now is        7.7 secs

     total energy              =     -22.76183646 Ry
     Harris-Foulkes estimate   =     -22.86629004 Ry
     estimated scf accuracy    <       0.17678829 Ry

     iteration #  2     ecut=    70.00 Ry     beta=0.70
     Davidson diagonalization with overlap
     ethr =  2.21E-03,  avg # of iterations =  4.1

     negative rho (up, down):  0.170E-04 0.000E+00

     total cpu time spent up to now is       11.1 secs

     total energy              =     -22.78801442 Ry
     Harris-Foulkes estimate   =     -22.78813921 Ry
     estimated scf accuracy    <       0.00238521 Ry

     iteration #  3     ecut=    70.00 Ry     beta=0.70
     Davidson diagonalization with overlap
     ethr =  2.98E-05,  avg # of iterations =  9.5

     negative rho (up, down):  0.185E-04 0.000E+00

     total cpu time spent up to now is       16.1 secs

     total energy              =     -22.78831273 Ry
     Harris-Foulkes estimate   =     -22.78828618 Ry
     estimated scf accuracy    <       0.00013609 Ry

     iteration #  4     ecut=    70.00 Ry     beta=0.70
     Davidson diagonalization with overlap
     ethr =  1.70E-06,  avg # of iterations =  5.1

     negative rho (up, down):  0.185E-04 0.000E+00

     total cpu time spent up to now is       19.7 secs

     total energy              =     -22.78831822 Ry
     Harris-Foulkes estimate   =     -22.78831753 Ry
     estimated scf accuracy    <       0.00000074 Ry

     iteration #  5     ecut=    70.00 Ry     beta=0.70
     Davidson diagonalization with overlap
     ethr =  9.21E-09,  avg # of iterations =  2.6

     negative rho (up, down):  0.185E-04 0.000E+00

     total cpu time spent up to now is       23.0 secs

     total energy              =     -22.78831860 Ry
     Harris-Foulkes estimate   =     -22.78831859 Ry
     estimated scf accuracy    <       0.00000003 Ry

     iteration #  6     ecut=    70.00 Ry     beta=0.70
     Davidson diagonalization with overlap
     ethr =  3.17E-10,  avg # of iterations =  2.0

     negative rho (up, down):  0.185E-04 0.000E+00

     total cpu time spent up to now is       26.0 secs

     End of self-consistent calculation

          k = 0.0000 0.0000 0.0000 ( 10963 PWs)   bands (ev):

   -22.2567 -10.4420  -6.2481  -6.2481   0.2623   0.9897   1.1568   1.4923

          k = 0.0000 0.1155 0.0000 ( 10955 PWs)   bands (ev):

   -22.0279 -10.1716  -7.1430  -6.6957   0.5727   1.3048   1.4757   1.8095

          k = 0.0000 0.2309 0.0000 ( 10949 PWs)   bands (ev):

   -21.3455  -9.3718  -9.2624  -7.6598   1.5033   2.2470   2.4323   2.7596

          k = 0.0000 0.3464 0.0000 ( 10933 PWs)   bands (ev):

   -20.2229 -11.7976  -8.6018  -8.0887   2.4152   3.0456   3.8369   4.0254

          k = 0.0000 0.4619 0.0000 ( 10955 PWs)   bands (ev):

   -18.6977 -14.2868  -9.2403  -6.4834  -0.1055   3.8701   5.2156   6.0094

          k = 0.0000-0.5774 0.0000 ( 10956 PWs)   bands (ev):

   -17.2439 -16.0782  -9.4631  -5.4214  -1.5048   3.7494   7.8461   8.0030

          k = 0.1000 0.1732 0.0000 ( 10959 PWs)   bands (ev):

   -21.5723  -9.6362  -8.4628  -7.5926   1.1937   1.9339   2.1134   2.4433

          k = 0.1000 0.2887 0.0000 ( 10940 PWs)   bands (ev):

   -20.6697 -10.5622  -8.7807  -8.5905   2.4329   3.1696   3.3889   3.4702

          k = 0.1000 0.4041 0.0000 ( 10931 PWs)   bands (ev):

   -19.3427 -12.9887  -9.6627  -7.1150   0.9853   4.2736   5.0212   5.0618

          k = 0.1000-0.6351 0.0000 ( 10925 PWs)   bands (ev):

   -17.6816 -15.2727 -10.1214  -5.5547  -1.1558   4.7651   6.7232   7.4837

          k = 0.2000 0.3464 0.0000 ( 10948 PWs)   bands (ev):

   -19.5615 -12.0154 -10.4533  -7.3358   1.5125   3.9754   4.7306   4.9833

          k = 0.2000-0.6928 0.0000 ( 10916 PWs)   bands (ev):

   -18.0655 -13.9345 -11.4943  -5.7419  -0.5732   6.1005   6.7675   7.2069

          k = 0.2000-0.5774 0.0000 ( 10894 PWs)   bands (ev):

   -16.6483 -15.5728 -11.7957  -4.5978  -1.8994   7.0857   8.0481   8.5844

          k = 0.3000-0.6351 0.0000 ( 10822 PWs)   bands (ev):

   -16.5053 -14.8770 -13.0184  -4.1377  -2.1926   7.4981   8.3657   9.2783

     the Fermi energy is    -2.5405 ev

!    total energy              =     -22.78831861 Ry
     Harris-Foulkes estimate   =     -22.78831861 Ry
     estimated scf accuracy    <          6.7E-10 Ry

     The total energy is the sum of the following terms:

     one-electron contribution =    -347.89585308 Ry
     hartree contribution      =     174.90571735 Ry
     xc contribution           =      -6.94535389 Ry
     ewald contribution        =     157.14717101 Ry
     smearing contrib. (-TS)   =      -0.00000000 Ry

     convergence has been achieved in   6 iterations

     Writing output data file graphene.save

     init_run     :      2.73s CPU      3.05s WALL (       1 calls)
     electrons    :     21.66s CPU     22.50s WALL (       1 calls)

     Called by init_run:
     wfcinit      :      0.74s CPU      0.92s WALL (       1 calls)
     potinit      :      0.88s CPU      0.94s WALL (       1 calls)

     Called by electrons:
     c_bands      :     14.16s CPU     14.60s WALL (       6 calls)
     sum_band     :      4.13s CPU      4.31s WALL (       6 calls)
     v_of_rho     :      1.65s CPU      1.74s WALL (       7 calls)
     newd         :      1.51s CPU      1.57s WALL (       7 calls)
     mix_rho      :      0.22s CPU      0.22s WALL (       6 calls)

     Called by c_bands:
     init_us_2    :      0.33s CPU      0.35s WALL (     182 calls)
     cegterg      :     13.74s CPU     14.13s WALL (      84 calls)

     Called by *egterg:
     h_psi        :     12.36s CPU     12.79s WALL (     500 calls)
     s_psi        :      0.24s CPU      0.23s WALL (     500 calls)
     g_psi        :      0.12s CPU      0.13s WALL (     402 calls)
     cdiaghg      :      0.20s CPU      0.28s WALL (     486 calls)

     Called by h_psi:
     add_vuspsi   :      0.25s CPU      0.26s WALL (     500 calls)

     General routines
     calbec       :      0.37s CPU      0.41s WALL (     584 calls)
     fft          :      1.48s CPU      1.57s WALL (     107 calls)
     ffts         :      0.05s CPU      0.05s WALL (      13 calls)
     fftw         :      9.64s CPU     10.04s WALL (    5048 calls)
     interpolate  :      0.26s CPU      0.27s WALL (      13 calls)
     davcio       :      0.07s CPU      0.07s WALL (     266 calls)

     Parallel routines
     fft_scatter  :      5.29s CPU      5.60s WALL (    5168 calls)

     PWSCF        :    24.61s CPU        26.14s WALL


   This run was terminated on:   1: 2:58  26Jul2015            

=------------------------------------------------------------------------------=
   JOB DONE.
=------------------------------------------------------------------------------=
