
     Program PWSCF v.5.0.2 (svn rev. 9656) starts on 11Jul2015 at 20:37:31 

     This program is part of the open-source Quantum ESPRESSO suite
     for quantum simulation of materials; please cite
         "P. Giannozzi et al., J. Phys.:Condens. Matter 21 395502 (2009);
          URL http://www.quantum-espresso.org", 
     in publications or presentations arising from this work. More details at
     http://www.quantum-espresso.org/quote.php

     Parallel version (MPI), running on     4 processors
     R & G space division:  proc/nbgrp/npool/nimage =       4

     Current dimensions of program PWSCF are:
     Max number of different atomic species (ntypx) = 10
     Max number of k-points (npk) =  40000
     Max angular momentum in pseudopotentials (lmaxx) =  3
     Waiting for input...
     Reading input from standard input
               file Cu.pbe.UPF: wavefunction(s)  4S 3D renormalized

     Subspace diagonalization in iterative solution of the eigenvalue problem:
     a serial algorithm will be used


     Parallelization info
     --------------------
     sticks:   dense  smooth     PW     G-vecs:    dense   smooth      PW
     Min         289     289     87                 6437     6437    1027
     Max         292     292     88                 6438     6438    1028
     Sum        1159    1159    349                25749    25749    4111



     bravais-lattice index     =            2
     lattice parameter (alat)  =      10.2000  a.u.
     unit-cell volume          =     265.3020 (a.u.)^3
     number of atoms/cell      =            2
     number of atomic types    =            1
     number of electrons       =        22.00
     number of Kohn-Sham states=           15
     kinetic-energy cutoff     =      80.0000  Ry
     charge density cutoff     =     320.0000  Ry
     convergence threshold     =      1.0E-07
     mixing beta               =       0.7000
     number of iterations used =            8  plain     mixing
     Exchange-correlation      =  SLA  PW   PBX  PBC ( 1 4 3 4 0)
     EXX-fraction              =        0.00

     celldm(1)=  10.200000  celldm(2)=   0.000000  celldm(3)=   0.000000
     celldm(4)=   0.000000  celldm(5)=   0.000000  celldm(6)=   0.000000

     crystal axes: (cart. coord. in units of alat)
               a(1) = (  -0.500000   0.000000   0.500000 )  
               a(2) = (   0.000000   0.500000   0.500000 )  
               a(3) = (  -0.500000   0.500000   0.000000 )  

     reciprocal axes: (cart. coord. in units 2 pi/alat)
               b(1) = ( -1.000000 -1.000000  1.000000 )  
               b(2) = (  1.000000  1.000000  1.000000 )  
               b(3) = ( -1.000000  1.000000 -1.000000 )  


     PseudoPot. # 1 for Cu read from file:
     ./Cu.pbe.UPF
     MD5 check sum: 0c51aa2b3b25e0d1c3270f17c0a46a12
     Pseudo is Projector augmented-wave + core cor, Zval = 11.0
     Generated using "atomic" code by A. Dal Corso  v.5.0.99 svn rev. 10869
     Shape of augmentation charge: BESSEL
     Using radial grid of 1199 points,  6 beta functions with: 
                l(1) =   0
                l(2) =   0
                l(3) =   1
                l(4) =   1
                l(5) =   2
                l(6) =   2
     Q(r) pseudized with 0 coefficients 


     atomic species   valence    mass     pseudopotential
        Cu            11.00    63.54600     Cu( 1.00)

     24 Sym. Ops. (no inversion) found
          (note: 24 additional sym.ops. were found but ignored
           their fractional translations are incommensurate with FFT grid)


   Cartesian axes

     site n.     atom                  positions (alat units)
         1           Cu  tau(   1) = (   0.0000000   0.0000000   0.0000000  )
         2           Cu  tau(   2) = (   0.2500000   0.2500000   0.2500000  )

     number of k points=    29  gaussian smearing, width (Ry)=  0.0030
                       cart. coord. in units 2pi/alat
        k(    1) = (   0.0000000   0.0000000   0.0000000), wk =   0.0039062
        k(    2) = (  -0.1250000   0.1250000  -0.1250000), wk =   0.0312500
        k(    3) = (  -0.2500000   0.2500000  -0.2500000), wk =   0.0312500
        k(    4) = (  -0.3750000   0.3750000  -0.3750000), wk =   0.0312500
        k(    5) = (   0.5000000  -0.5000000   0.5000000), wk =   0.0156250
        k(    6) = (   0.0000000   0.2500000   0.0000000), wk =   0.0234375
        k(    7) = (  -0.1250000   0.3750000  -0.1250000), wk =   0.0937500
        k(    8) = (  -0.2500000   0.5000000  -0.2500000), wk =   0.0937500
        k(    9) = (   0.6250000  -0.3750000   0.6250000), wk =   0.0937500
        k(   10) = (   0.5000000  -0.2500000   0.5000000), wk =   0.0937500
        k(   11) = (   0.3750000  -0.1250000   0.3750000), wk =   0.0937500
        k(   12) = (   0.2500000   0.0000000   0.2500000), wk =   0.0468750
        k(   13) = (   0.0000000   0.5000000   0.0000000), wk =   0.0234375
        k(   14) = (  -0.1250000   0.6250000  -0.1250000), wk =   0.0937500
        k(   15) = (   0.7500000  -0.2500000   0.7500000), wk =   0.0937500
        k(   16) = (   0.6250000  -0.1250000   0.6250000), wk =   0.0937500
        k(   17) = (   0.5000000   0.0000000   0.5000000), wk =   0.0468750
        k(   18) = (   0.0000000   0.7500000   0.0000000), wk =   0.0234375
        k(   19) = (   0.8750000  -0.1250000   0.8750000), wk =   0.0937500
        k(   20) = (   0.7500000   0.0000000   0.7500000), wk =   0.0468750
        k(   21) = (   0.0000000  -1.0000000   0.0000000), wk =   0.0117188
        k(   22) = (  -0.2500000   0.5000000   0.0000000), wk =   0.0937500
        k(   23) = (   0.6250000  -0.3750000   0.8750000), wk =   0.1875000
        k(   24) = (   0.5000000  -0.2500000   0.7500000), wk =   0.0937500
        k(   25) = (   0.7500000  -0.2500000   1.0000000), wk =   0.0937500
        k(   26) = (   0.6250000  -0.1250000   0.8750000), wk =   0.1875000
        k(   27) = (   0.5000000   0.0000000   0.7500000), wk =   0.0937500
        k(   28) = (  -0.2500000  -1.0000000   0.0000000), wk =   0.0468750
        k(   29) = (  -0.5000000  -1.0000000   0.0000000), wk =   0.0234375

     Dense  grid:    25749 G-vectors     FFT dimensions: (  45,  45,  45)

     Largest allocated arrays     est. size (Mb)     dimensions
        Kohn-Sham Wavefunctions         0.19 Mb     (    819,   15)
        NL pseudopotentials             0.45 Mb     (    819,   36)
        Each V/rho on FFT grid          0.37 Mb     (  24300)
        Each G-vector array             0.05 Mb     (   6438)
        G-vector shells                 0.00 Mb     (    283)
     Largest temporary arrays     est. size (Mb)     dimensions
        Auxiliary wavefunctions         0.75 Mb     (    819,   60)
        Each subspace H/S matrix        0.05 Mb     (  60,  60)
        Each <psi_i|beta_j> matrix      0.01 Mb     (     36,   15)
        Arrays for rho mixing           2.97 Mb     (  24300,   8)

     Check: negative/imaginary core charge=   -0.000065    0.000000

     Initial potential from superposition of free atoms

     starting charge   21.99954, renormalised to   22.00000
     Starting wfc are   18 randomized atomic wfcs
     Checking if some PAW data can be deallocated... 

     total cpu time spent up to now is        3.9 secs

     per-process dynamical memory:    15.1 Mb

     Self-consistent Calculation

     iteration #  1     ecut=    80.00 Ry     beta=0.70
     Davidson diagonalization with overlap
     ethr =  1.00E-02,  avg # of iterations =  3.5

     Threshold (ethr) on eigenvalues was too large:
     Diagonalizing with lowered threshold

     Davidson diagonalization with overlap
     ethr =  1.05E-04,  avg # of iterations =  3.4

     total cpu time spent up to now is       14.4 secs

     total energy              =    -426.02818240 Ry
     Harris-Foulkes estimate   =    -426.04278881 Ry
     estimated scf accuracy    <       0.02186242 Ry

     iteration #  2     ecut=    80.00 Ry     beta=0.70
     Davidson diagonalization with overlap
     ethr =  9.94E-05,  avg # of iterations =  3.0

     total cpu time spent up to now is       20.8 secs

     total energy              =    -426.01299404 Ry
     Harris-Foulkes estimate   =    -426.07209456 Ry
     estimated scf accuracy    <       0.20731650 Ry

     iteration #  3     ecut=    80.00 Ry     beta=0.70
     Davidson diagonalization with overlap
     ethr =  9.94E-05,  avg # of iterations =  3.0

     total cpu time spent up to now is       26.9 secs

     total energy              =    -426.03931228 Ry
     Harris-Foulkes estimate   =    -426.04130920 Ry
     estimated scf accuracy    <       0.00416048 Ry

     iteration #  4     ecut=    80.00 Ry     beta=0.70
     Davidson diagonalization with overlap
     ethr =  1.89E-05,  avg # of iterations =  2.2

     total cpu time spent up to now is       32.4 secs

     total energy              =    -426.04032003 Ry
     Harris-Foulkes estimate   =    -426.04102981 Ry
     estimated scf accuracy    <       0.00247108 Ry

     iteration #  5     ecut=    80.00 Ry     beta=0.70
     Davidson diagonalization with overlap
     ethr =  1.12E-05,  avg # of iterations =  1.1

     total cpu time spent up to now is       37.0 secs

     total energy              =    -426.04061295 Ry
     Harris-Foulkes estimate   =    -426.04061797 Ry
     estimated scf accuracy    <       0.00001724 Ry

     iteration #  6     ecut=    80.00 Ry     beta=0.70
     Davidson diagonalization with overlap
     ethr =  7.84E-08,  avg # of iterations =  3.1

     total cpu time spent up to now is       43.4 secs

     total energy              =    -426.04063885 Ry
     Harris-Foulkes estimate   =    -426.04063987 Ry
     estimated scf accuracy    <       0.00000502 Ry

     iteration #  7     ecut=    80.00 Ry     beta=0.70
     Davidson diagonalization with overlap
     ethr =  2.28E-08,  avg # of iterations =  1.0

     total cpu time spent up to now is       48.0 secs

     total energy              =    -426.04063901 Ry
     Harris-Foulkes estimate   =    -426.04063916 Ry
     estimated scf accuracy    <       0.00000074 Ry

     iteration #  8     ecut=    80.00 Ry     beta=0.70
     Davidson diagonalization with overlap
     ethr =  3.35E-09,  avg # of iterations =  2.1

     total cpu time spent up to now is       52.7 secs

     End of self-consistent calculation

          k = 0.0000 0.0000 0.0000 (  3143 PWs)   bands (ev):

     0.6808   3.9727   3.9727   3.9727   3.9961   3.9961   5.0278   5.0278
     5.0278   5.6513   5.6513  16.3874  16.3874  16.3874  17.3331

          k =-0.1250 0.1250-0.1250 (  3209 PWs)   bands (ev):

     0.9190   3.8879   3.8879   3.9781   4.1169   4.1169   4.9805   5.0221
     5.0221   5.6517   5.6517  13.6660  15.5204  15.5204  17.7933

          k =-0.2500 0.2500-0.2500 (  3215 PWs)   bands (ev):

     1.6001   3.8647   3.8647   4.0029   4.2001   4.2001   4.8839   5.0501
     5.0501   5.6410   5.6410  10.6011  14.5890  14.5890  17.5793

          k =-0.3750 0.3750-0.3750 (  3206 PWs)   bands (ev):

     2.5404   3.9140   3.9140   4.0348   4.1664   4.1664   4.9470   5.1546
     5.1546   5.6028   5.6028   8.0004  13.9839  13.9839  17.5801

          k = 0.5000-0.5000 0.5000 (  3214 PWs)   bands (ev):

     3.0717   3.9785   3.9785   4.0201   4.0970   4.0970   5.2291   5.2291
     5.4502   5.5685   5.5685   6.4445  13.7734  13.7734  17.7317

          k = 0.0000 0.2500 0.0000 (  3203 PWs)   bands (ev):

     0.9994   3.7950   3.9854   3.9854   4.0650   4.1891   4.8448   5.0856
     5.0856   5.5947   5.6959  14.3731  14.3731  14.9803  16.3017

          k =-0.1250 0.3750-0.1250 (  3212 PWs)   bands (ev):

     1.5373   3.7416   3.9716   3.9959   4.1601   4.2898   4.7020   5.1226
     5.1542   5.5425   5.7189  11.6718  13.4509  14.2465  16.6082

          k =-0.2500 0.5000-0.2500 (  3223 PWs)   bands (ev):

     2.4165   3.7595   3.9870   4.0074   4.1815   4.2998   4.7045   5.2071
     5.2351   5.5132   5.7135   8.9287  12.9742  13.2316  16.3845

          k = 0.6250-0.3750 0.6250 (  3200 PWs)   bands (ev):

     3.1599   3.8105   3.9633   4.0129   4.2008   4.2083   4.9547   5.1960
     5.5769   5.5922   5.7371   6.7830  12.4263  13.0334  16.3818

          k = 0.5000-0.2500 0.5000 (  3195 PWs)   bands (ev):

     2.9731   3.8689   3.8903   4.0727   4.0927   4.2881   5.0198   5.0505
     5.4547   5.5505   5.6676   7.4211  12.0440  13.6303  16.8189

          k = 0.3750-0.1250 0.3750 (  3212 PWs)   bands (ev):

     2.0952   3.7993   3.9426   3.9928   4.1466   4.3286   4.8405   4.9385
     5.2862   5.5231   5.7085   9.8160  12.1622  14.6514  17.6886

          k = 0.2500 0.0000 0.2500 (  3221 PWs)   bands (ev):

     1.3071   3.8030   3.9244   3.9860   4.1354   4.2445   4.8797   4.9515
     5.1526   5.5863   5.6973  12.5877  12.8657  15.7490  18.0089

          k = 0.0000 0.5000 0.0000 (  3207 PWs)   bands (ev):

     1.9241   3.6550   4.0058   4.0058   4.2591   4.3814   4.4492   5.2662
     5.2662   5.4307   5.7657  12.3744  12.4156  12.4156  15.2485

          k =-0.1250 0.6250-0.1250 (  3203 PWs)   bands (ev):

     2.6794   3.6445   3.9842   4.0063   4.3153   4.3576   4.4637   5.2721
     5.3914   5.4476   5.8158  10.0182  11.5080  11.8236  15.3497

          k = 0.7500-0.2500 0.7500 (  3208 PWs)   bands (ev):

     3.4361   3.6759   3.9351   3.9732   4.2875   4.4217   4.6433   5.1134
     5.5998   5.6592   6.0020   7.7677  10.3924  11.8207  15.3744

          k = 0.6250-0.1250 0.6250 (  3201 PWs)   bands (ev):

     3.4795   3.7845   3.8934   3.9858   4.1709   4.4918   4.9244   4.9310
     5.6833   5.6998   6.0911   7.2721   9.6925  12.4266  15.7436

          k = 0.5000 0.0000 0.5000 (  3190 PWs)   bands (ev):

     2.8760   3.8168   3.8775   4.0495   4.0872   4.4732   4.8552   4.9485
     5.4537   5.5309   5.7320   9.2496   9.7173  13.5047  16.5106

          k = 0.0000 0.7500 0.0000 (  3206 PWs)   bands (ev):

     3.2796   3.6180   4.0134   4.0134   4.0374   4.5009   4.5428   5.1773
     5.5216   5.5216   5.9715   9.4393  11.0569  11.0569  14.7143

          k = 0.8750-0.1250 0.8750 (  3222 PWs)   bands (ev):

     3.6584   3.8269   3.8708   4.0000   4.1895   4.4920   4.6692   5.0046
     5.6357   5.6705   6.3601   8.1235   9.7182  10.8952  14.8271

          k = 0.7500 0.0000 0.7500 (  3200 PWs)   bands (ev):

     3.6423   3.8629   3.9276   3.9526   4.2411   4.6849   4.7062   4.8456
     5.6948   5.7736   6.9744   7.4042   8.3568  11.3993  15.0986

          k = 0.0000-1.0000 0.0000 (  3250 PWs)   bands (ev):

     3.7395   3.7396   4.0135   4.0135   4.3190   4.3190   4.8664   4.8664
     5.6585   5.6585   7.0393   7.0394  10.5479  10.5479  14.6582

          k =-0.2500 0.5000 0.0000 (  3207 PWs)   bands (ev):

     2.1869   3.7089   3.9646   4.0137   4.2053   4.3940   4.5725   5.1315
     5.3444   5.4539   5.7513  10.7695  11.1942  13.4561  17.0697

          k = 0.6250-0.3750 0.8750 (  3206 PWs)   bands (ev):

     3.0372   3.7381   3.8910   4.0565   4.2111   4.4074   4.6745   5.1437
     5.4860   5.5528   5.7712   8.4204  10.7403  12.3619  16.9933

          k = 0.5000-0.2500 0.7500 (  3186 PWs)   bands (ev):

     3.4730   3.7432   3.8522   4.0548   4.2477   4.3545   4.8824   5.0381
     5.6511   5.6821   6.4752   6.5064  10.7552  11.8342  16.9250

          k = 0.7500-0.2500 1.0000 (  3205 PWs)   bands (ev):

     3.3869   3.6551   3.8769   4.0392   4.3080   4.4319   4.5299   5.1255
     5.5712   5.5912   5.9655   9.1153  10.0610  10.7948  16.3537

          k = 0.6250-0.1250 0.8750 (  3198 PWs)   bands (ev):

     3.6728   3.7403   3.8700   4.0368   4.3412   4.5403   4.6717   4.9251
     5.6987   5.7502   6.6083   7.5900   9.1364  10.4965  16.5787

          k = 0.5000 0.0000 0.7500 (  3214 PWs)   bands (ev):

     3.5709   3.7644   3.8294   4.0547   4.2516   4.5910   4.6750   4.9673
     5.7095   5.7184   6.1583   8.1506   8.8002  11.2022  17.0682

          k =-0.2500-1.0000 0.0000 (  3200 PWs)   bands (ev):

     3.7155   3.7155   4.0116   4.0116   4.4057   4.4057   4.8128   4.8129
     5.7139   5.7139   7.1717   7.1717   9.7413   9.7415  16.1686

          k =-0.5000-1.0000 0.0000 (  3188 PWs)   bands (ev):

     3.6957   3.6958   4.0080   4.0081   4.5187   4.5188   4.7320   4.7320
     5.7667   5.7667   7.3869   7.3869   9.0343   9.0347  18.6734

     the Fermi energy is     6.7596 ev

!    total energy              =    -426.04063907 Ry
     Harris-Foulkes estimate   =    -426.04063910 Ry
     estimated scf accuracy    <       0.00000004 Ry

     total all-electron energy =     -6619.800175 Ry

     The total energy is the sum of the following terms:

     one-electron contribution =    -116.82810809 Ry
     hartree contribution      =      57.86891750 Ry
     xc contribution           =     -73.47181833 Ry
     ewald contribution        =    -127.80442418 Ry
     one-center paw contrib.   =    -165.80514892 Ry
     smearing contrib. (-TS)   =      -0.00005705 Ry

     convergence has been achieved in   8 iterations

     Writing output data file Cu.save

     init_run     :      3.00s CPU      3.11s WALL (       1 calls)
     electrons    :     47.41s CPU     48.76s WALL (       1 calls)

     Called by init_run:
     wfcinit      :      1.71s CPU      1.75s WALL (       1 calls)
     potinit      :      0.41s CPU      0.44s WALL (       1 calls)

     Called by electrons:
     c_bands      :     35.89s CPU     36.88s WALL (       9 calls)
     sum_band     :      7.04s CPU      7.26s WALL (       9 calls)
     v_of_rho     :      0.41s CPU      0.43s WALL (       9 calls)
     newd         :      0.74s CPU      0.74s WALL (       9 calls)
     mix_rho      :      0.51s CPU      0.52s WALL (       9 calls)

     Called by c_bands:
     init_us_2    :      0.65s CPU      0.69s WALL (     551 calls)
     cegterg      :     34.25s CPU     35.12s WALL (     261 calls)

     Called by *egterg:
     h_psi        :     31.48s CPU     32.25s WALL (     942 calls)
     s_psi        :      0.69s CPU      0.69s WALL (     942 calls)
     g_psi        :      0.19s CPU      0.20s WALL (     652 calls)
     cdiaghg      :      0.98s CPU      1.00s WALL (     884 calls)

     Called by h_psi:
     add_vuspsi   :      0.70s CPU      0.72s WALL (     942 calls)

     General routines
     calbec       :      1.00s CPU      1.02s WALL (    1203 calls)
     fft          :      0.19s CPU      0.20s WALL (     119 calls)
     fftw         :     31.28s CPU     32.39s WALL (   25625 calls)
     davcio       :      0.13s CPU      0.13s WALL (     812 calls)

     Parallel routines
     fft_scatter  :      7.89s CPU      7.97s WALL (   25744 calls)

     PAW routines
     PAW_pot      :      3.19s CPU      3.33s WALL (       9 calls)
     PAW_ddot     :      0.48s CPU      0.48s WALL (      86 calls)
     PAW_symme    :      0.01s CPU      0.01s WALL (      18 calls)

     PWSCF        :    51.47s CPU        52.94s WALL


   This run was terminated on:  20:38:23  11Jul2015            

=------------------------------------------------------------------------------=
   JOB DONE.
=------------------------------------------------------------------------------=
