
     Program PWSCF v.5.0.2 (svn rev. 9656) starts on 12Jul2015 at  2:13:51 

     This program is part of the open-source Quantum ESPRESSO suite
     for quantum simulation of materials; please cite
         "P. Giannozzi et al., J. Phys.:Condens. Matter 21 395502 (2009);
          URL http://www.quantum-espresso.org", 
     in publications or presentations arising from this work. More details at
     http://www.quantum-espresso.org/quote.php

     Parallel version (MPI), running on     4 processors
     R & G space division:  proc/nbgrp/npool/nimage =       4

     Current dimensions of program PWSCF are:
     Max number of different atomic species (ntypx) = 10
     Max number of k-points (npk) =  40000
     Max angular momentum in pseudopotentials (lmaxx) =  3
     Waiting for input...
     Reading input from standard input
               file Al.pbe-n-kjpaw_psl.0.1.UPF: wavefunction(s)  3S renormalized

     Subspace diagonalization in iterative solution of the eigenvalue problem:
     a serial algorithm will be used


     Parallelization info
     --------------------
     sticks:   dense  smooth     PW     G-vecs:    dense   smooth      PW
     Min         127     127     40                 1947     1947     362
     Max         128     128     41                 1951     1951     366
     Sum         511     511    163                 7799     7799    1459



     bravais-lattice index     =            2
     lattice parameter (alat)  =       7.6300  a.u.
     unit-cell volume          =     111.0487 (a.u.)^3
     number of atoms/cell      =            1
     number of atomic types    =            1
     number of electrons       =         3.00
     number of Kohn-Sham states=            6
     kinetic-energy cutoff     =      65.0000  Ry
     charge density cutoff     =     260.0000  Ry
     convergence threshold     =      1.0E-07
     mixing beta               =       0.7000
     number of iterations used =            8  plain     mixing
     Exchange-correlation      =  SLA  PW   PBX  PBC ( 1 4 3 4 0)
     EXX-fraction              =        0.00

     celldm(1)=   7.630000  celldm(2)=   0.000000  celldm(3)=   0.000000
     celldm(4)=   0.000000  celldm(5)=   0.000000  celldm(6)=   0.000000

     crystal axes: (cart. coord. in units of alat)
               a(1) = (  -0.500000   0.000000   0.500000 )  
               a(2) = (   0.000000   0.500000   0.500000 )  
               a(3) = (  -0.500000   0.500000   0.000000 )  

     reciprocal axes: (cart. coord. in units 2 pi/alat)
               b(1) = ( -1.000000 -1.000000  1.000000 )  
               b(2) = (  1.000000  1.000000  1.000000 )  
               b(3) = ( -1.000000  1.000000 -1.000000 )  


     PseudoPot. # 1 for Al read from file:
     ./Al.pbe-n-kjpaw_psl.0.1.UPF
     MD5 check sum: 023d9faf819c76fc4df1f064efe7b7b2
     Pseudo is Projector augmented-wave + core cor, Zval =  3.0
     Generated using "atomic" code by A. Dal Corso  v.5.0.2 svn rev. 9415
     Shape of augmentation charge: PSQ
     Using radial grid of 1135 points,  4 beta functions with: 
                l(1) =   0
                l(2) =   0
                l(3) =   1
                l(4) =   1
     Q(r) pseudized with 0 coefficients 


     atomic species   valence    mass     pseudopotential
        Al             3.00    26.98154     Al( 1.00)

     48 Sym. Ops., with inversion, found



   Cartesian axes

     site n.     atom                  positions (alat units)
         1           Al  tau(   1) = (   0.0000000   0.0000000   0.0000000  )

     number of k points=    72  gaussian smearing, width (Ry)=  0.0030
                       cart. coord. in units 2pi/alat
        k(    1) = (   0.0000000   0.0000000   0.0000000), wk =   0.0011574
        k(    2) = (  -0.0833333   0.0833333  -0.0833333), wk =   0.0092593
        k(    3) = (  -0.1666667   0.1666667  -0.1666667), wk =   0.0092593
        k(    4) = (  -0.2500000   0.2500000  -0.2500000), wk =   0.0092593
        k(    5) = (  -0.3333333   0.3333333  -0.3333333), wk =   0.0092593
        k(    6) = (  -0.4166667   0.4166667  -0.4166667), wk =   0.0092593
        k(    7) = (   0.5000000  -0.5000000   0.5000000), wk =   0.0046296
        k(    8) = (   0.0000000   0.1666667   0.0000000), wk =   0.0069444
        k(    9) = (  -0.0833333   0.2500000  -0.0833333), wk =   0.0277778
        k(   10) = (  -0.1666667   0.3333333  -0.1666667), wk =   0.0277778
        k(   11) = (  -0.2500000   0.4166667  -0.2500000), wk =   0.0277778
        k(   12) = (  -0.3333333   0.5000000  -0.3333333), wk =   0.0277778
        k(   13) = (   0.5833333  -0.4166667   0.5833333), wk =   0.0277778
        k(   14) = (   0.5000000  -0.3333333   0.5000000), wk =   0.0277778
        k(   15) = (   0.4166667  -0.2500000   0.4166667), wk =   0.0277778
        k(   16) = (   0.3333333  -0.1666667   0.3333333), wk =   0.0277778
        k(   17) = (   0.2500000  -0.0833333   0.2500000), wk =   0.0277778
        k(   18) = (   0.1666667  -0.0000000   0.1666667), wk =   0.0138889
        k(   19) = (   0.0000000   0.3333333   0.0000000), wk =   0.0069444
        k(   20) = (  -0.0833333   0.4166667  -0.0833333), wk =   0.0277778
        k(   21) = (  -0.1666667   0.5000000  -0.1666667), wk =   0.0277778
        k(   22) = (  -0.2500000   0.5833333  -0.2500000), wk =   0.0277778
        k(   23) = (   0.6666667  -0.3333333   0.6666667), wk =   0.0277778
        k(   24) = (   0.5833333  -0.2500000   0.5833333), wk =   0.0277778
        k(   25) = (   0.5000000  -0.1666667   0.5000000), wk =   0.0277778
        k(   26) = (   0.4166667  -0.0833333   0.4166667), wk =   0.0277778
        k(   27) = (   0.3333333   0.0000000   0.3333333), wk =   0.0138889
        k(   28) = (   0.0000000   0.5000000   0.0000000), wk =   0.0069444
        k(   29) = (  -0.0833333   0.5833333  -0.0833333), wk =   0.0277778
        k(   30) = (  -0.1666667   0.6666667  -0.1666667), wk =   0.0277778
        k(   31) = (   0.7500000  -0.2500000   0.7500000), wk =   0.0277778
        k(   32) = (   0.6666667  -0.1666667   0.6666667), wk =   0.0277778
        k(   33) = (   0.5833333  -0.0833333   0.5833333), wk =   0.0277778
        k(   34) = (   0.5000000   0.0000000   0.5000000), wk =   0.0138889
        k(   35) = (   0.0000000   0.6666667   0.0000000), wk =   0.0069444
        k(   36) = (  -0.0833333   0.7500000  -0.0833333), wk =   0.0277778
        k(   37) = (   0.8333333  -0.1666667   0.8333333), wk =   0.0277778
        k(   38) = (   0.7500000  -0.0833333   0.7500000), wk =   0.0277778
        k(   39) = (   0.6666667  -0.0000000   0.6666667), wk =   0.0138889
        k(   40) = (   0.0000000   0.8333333   0.0000000), wk =   0.0069444
        k(   41) = (   0.9166667  -0.0833333   0.9166667), wk =   0.0277778
        k(   42) = (   0.8333333   0.0000000   0.8333333), wk =   0.0138889
        k(   43) = (   0.0000000  -1.0000000   0.0000000), wk =   0.0034722
        k(   44) = (  -0.1666667   0.3333333   0.0000000), wk =   0.0277778
        k(   45) = (  -0.2500000   0.4166667  -0.0833333), wk =   0.0555556
        k(   46) = (  -0.3333333   0.5000000  -0.1666667), wk =   0.0555556
        k(   47) = (   0.5833333  -0.4166667   0.7500000), wk =   0.0555556
        k(   48) = (   0.5000000  -0.3333333   0.6666667), wk =   0.0277778
        k(   49) = (  -0.1666667   0.5000000   0.0000000), wk =   0.0277778
        k(   50) = (  -0.2500000   0.5833333  -0.0833333), wk =   0.0555556
        k(   51) = (   0.6666667  -0.3333333   0.8333333), wk =   0.0555556
        k(   52) = (   0.5833333  -0.2500000   0.7500000), wk =   0.0555556
        k(   53) = (   0.5000000  -0.1666667   0.6666667), wk =   0.0555556
        k(   54) = (   0.4166667  -0.0833333   0.5833333), wk =   0.0555556
        k(   55) = (   0.3333333   0.0000000   0.5000000), wk =   0.0277778
        k(   56) = (  -0.1666667   0.6666667  -0.0000000), wk =   0.0277778
        k(   57) = (   0.7500000  -0.2500000   0.9166667), wk =   0.0555556
        k(   58) = (   0.6666667  -0.1666667   0.8333333), wk =   0.0555556
        k(   59) = (   0.5833333  -0.0833333   0.7500000), wk =   0.0555556
        k(   60) = (   0.5000000   0.0000000   0.6666667), wk =   0.0277778
        k(   61) = (   0.8333333  -0.1666667   1.0000000), wk =   0.0277778
        k(   62) = (   0.7500000  -0.0833333   0.9166667), wk =   0.0555556
        k(   63) = (   0.6666667   0.0000000   0.8333333), wk =   0.0277778
        k(   64) = (  -0.1666667  -1.0000000  -0.0000000), wk =   0.0138889
        k(   65) = (   0.6666667  -0.3333333   1.0000000), wk =   0.0277778
        k(   66) = (   0.5833333  -0.2500000   0.9166667), wk =   0.0555556
        k(   67) = (   0.5000000  -0.1666667   0.8333333), wk =   0.0277778
        k(   68) = (   0.6666667  -0.1666667   1.0000000), wk =   0.0277778
        k(   69) = (   0.5833333  -0.0833333   0.9166667), wk =   0.0555556
        k(   70) = (   0.5000000   0.0000000   0.8333333), wk =   0.0277778
        k(   71) = (  -0.3333333  -1.0000000   0.0000000), wk =   0.0138889
        k(   72) = (  -0.5000000  -1.0000000   0.0000000), wk =   0.0069444

     Dense  grid:     7799 G-vectors     FFT dimensions: (  27,  27,  27)

     Largest allocated arrays     est. size (Mb)     dimensions
        Kohn-Sham Wavefunctions         0.02 Mb     (    255,    6)
        NL pseudopotentials             0.03 Mb     (    255,    8)
        Each V/rho on FFT grid          0.08 Mb     (   5103)
        Each G-vector array             0.01 Mb     (   1950)
        G-vector shells                 0.00 Mb     (    127)
     Largest temporary arrays     est. size (Mb)     dimensions
        Auxiliary wavefunctions         0.09 Mb     (    255,   24)
        Each subspace H/S matrix        0.01 Mb     (  24,  24)
        Each <psi_i|beta_j> matrix      0.00 Mb     (      8,    6)
        Arrays for rho mixing           0.62 Mb     (   5103,   8)

     Check: negative/imaginary core charge=   -0.000001    0.000000

     Initial potential from superposition of free atoms

     starting charge    2.99771, renormalised to    3.00000
     Starting wfc are    4 randomized atomic wfcs
     Checking if some PAW data can be deallocated... 

     total cpu time spent up to now is        1.0 secs

     per-process dynamical memory:     9.1 Mb

     Self-consistent Calculation

     iteration #  1     ecut=    65.00 Ry     beta=0.70
     Davidson diagonalization with overlap
     ethr =  1.00E-02,  avg # of iterations =  4.9

     Threshold (ethr) on eigenvalues was too large:
     Diagonalizing with lowered threshold

     Davidson diagonalization with overlap
     ethr =  1.93E-04,  avg # of iterations =  2.2

     total cpu time spent up to now is        3.3 secs

     total energy              =     -39.50359016 Ry
     Harris-Foulkes estimate   =     -39.50494290 Ry
     estimated scf accuracy    <       0.00549510 Ry

     iteration #  2     ecut=    65.00 Ry     beta=0.70
     Davidson diagonalization with overlap
     ethr =  1.83E-04,  avg # of iterations =  1.0

     total cpu time spent up to now is        4.1 secs

     total energy              =     -39.50355048 Ry
     Harris-Foulkes estimate   =     -39.50365428 Ry
     estimated scf accuracy    <       0.00040421 Ry

     iteration #  3     ecut=    65.00 Ry     beta=0.70
     Davidson diagonalization with overlap
     ethr =  1.35E-05,  avg # of iterations =  2.0

     total cpu time spent up to now is        4.9 secs

     total energy              =     -39.50357078 Ry
     Harris-Foulkes estimate   =     -39.50357132 Ry
     estimated scf accuracy    <       0.00000134 Ry

     iteration #  4     ecut=    65.00 Ry     beta=0.70
     Davidson diagonalization with overlap
     ethr =  4.47E-08,  avg # of iterations =  3.2

     total cpu time spent up to now is        5.9 secs

     total energy              =     -39.50357188 Ry
     Harris-Foulkes estimate   =     -39.50357192 Ry
     estimated scf accuracy    <       0.00000012 Ry

     iteration #  5     ecut=    65.00 Ry     beta=0.70
     Davidson diagonalization with overlap
     ethr =  3.85E-09,  avg # of iterations =  1.3

     total cpu time spent up to now is        6.7 secs

     End of self-consistent calculation

          k = 0.0000 0.0000 0.0000 (   941 PWs)   bands (ev):

    -3.2232  20.5718  20.5718  22.0506  22.0506  22.0506

          k =-0.0833 0.0833-0.0833 (   950 PWs)   bands (ev):

    -3.0341  17.9513  19.9998  19.9998  22.7181  22.9106

          k =-0.1667 0.1667-0.1667 (   968 PWs)   bands (ev):

    -2.4684  14.5861  19.2981  19.2981  22.5356  23.9735

          k =-0.2500 0.2500-0.2500 (   968 PWs)   bands (ev):

    -1.5303  11.3794  18.8558  18.8558  22.3057  22.7059

          k =-0.3333 0.3333-0.3333 (   968 PWs)   bands (ev):

    -0.2272   8.4309  18.7167  18.7167  21.3111  21.3111

          k =-0.4167 0.4167-0.4167 (   978 PWs)   bands (ev):

     1.4311   5.7787  18.8910  18.8910  20.1925  20.1925

          k = 0.5000-0.5000 0.5000 (   978 PWs)   bands (ev):

     3.3264   3.5513  19.3558  19.3558  19.4106  19.4107

          k = 0.0000 0.1667 0.0000 (   953 PWs)   bands (ev):

    -2.9711  18.8507  18.8507  19.1426  21.4811  24.1367

          k =-0.0833 0.2500-0.0833 (   967 PWs)   bands (ev):

    -2.5311  15.7923  17.9715  19.2510  21.8424  22.7608

          k =-0.1667 0.3333-0.1667 (   973 PWs)   bands (ev):

    -1.7175  12.5551  17.4001  18.9147  20.7231  23.6322

          k =-0.2500 0.4167-0.2500 (   976 PWs)   bands (ev):

    -0.5365   9.5298  17.1446  18.7094  19.1730  23.5903

          k =-0.3333 0.5000-0.3333 (   991 PWs)   bands (ev):

     1.0029   6.7831  17.2079  17.8858  18.8303  22.4012

          k = 0.5833-0.4167 0.5833 (   986 PWs)   bands (ev):

     2.8845   4.3500  16.9472  17.5917  19.2457  21.4993

          k = 0.5000-0.3333 0.5000 (   984 PWs)   bands (ev):

     2.2218   5.1226  16.3343  18.2959  19.9900  20.9064

          k = 0.4167-0.2500 0.4167 (   979 PWs)   bands (ev):

     0.4507   7.6634  16.0536  19.3139  20.6310  21.0510

          k = 0.3333-0.1667 0.3333 (   971 PWs)   bands (ev):

    -0.9704  10.5024  16.1086  20.4909  20.8085  22.4000

          k = 0.2500-0.0833 0.2500 (   974 PWs)   bands (ev):

    -2.0299  13.5861  16.5125  20.9005  22.2185  23.4497

          k = 0.1667-0.0000 0.1667 (   965 PWs)   bands (ev):

    -2.7195  16.5617  17.5160  21.0617  22.3308  23.3305

          k = 0.0000 0.3333 0.0000 (   974 PWs)   bands (ev):

    -2.2176  16.9603  16.9603  17.1105  20.2399  20.4250

          k =-0.0833 0.4167-0.0833 (   980 PWs)   bands (ev):

    -1.5304  13.9824  16.2699  17.5726  18.4022  20.6439

          k =-0.1667 0.5000-0.1667 (   981 PWs)   bands (ev):

    -0.4748  10.9396  15.9010  16.6271  17.5532  22.4571

          k =-0.2500 0.5833-0.2500 (   990 PWs)   bands (ev):

     0.9408   8.1229  15.2348  15.8538  17.5795  24.7122

          k = 0.6667-0.3333 0.6667 (   992 PWs)   bands (ev):

     2.7037   5.5963  14.1627  16.1285  17.9138  23.9279

          k = 0.5833-0.2500 0.5833 (   982 PWs)   bands (ev):

     3.3648   4.8224  13.4300  16.7257  18.5806  23.2415

          k = 0.5000-0.1667 0.5000 (   975 PWs)   bands (ev):

     1.4916   7.2297  13.0507  17.6447  19.5764  22.8576

          k = 0.4167-0.0833 0.4167 (   979 PWs)   bands (ev):

    -0.0421   9.9027  13.0637  18.8800  20.8792  22.7546

          k = 0.3333 0.0000 0.3333 (   975 PWs)   bands (ev):

    -1.2190  12.4242  13.8466  20.4092  22.4318  22.5248

          k = 0.0000 0.5000 0.0000 (   982 PWs)   bands (ev):

    -0.9706  15.4205  15.4655  15.4655  16.2045  18.9639

          k =-0.0833 0.5833-0.0833 (   988 PWs)   bands (ev):

    -0.0429  12.5982  14.3368  14.9852  16.2356  19.4722

          k =-0.1667 0.6667-0.1667 (   992 PWs)   bands (ev):

     1.2450   9.7702  12.7999  14.8279  16.4019  21.4911

          k = 0.7500-0.2500 0.7500 (   986 PWs)   bands (ev):

     2.8803   7.1772  11.5982  14.9933  16.6798  24.0498

          k = 0.6667-0.1667 0.6667 (   983 PWs)   bands (ev):

     4.7234   4.9990  10.7519  15.4816  17.2598  25.8779

          k = 0.5833-0.0833 0.5833 (   989 PWs)   bands (ev):

     2.8866   7.0962  10.3100  16.2933  18.1694  25.4011

          k = 0.5000 0.0000 0.5000 (   983 PWs)   bands (ev):

     1.2472   9.1730  10.6948  17.4278  19.3941  24.9360

          k = 0.0000 0.6667 0.0000 (  1002 PWs)   bands (ev):

     0.7552  12.3203  14.1899  14.3949  14.3949  17.9172

          k =-0.0833 0.7500-0.0833 (   990 PWs)   bands (ev):

     1.9111  10.6259  11.7037  14.1283  15.2929  18.6316

          k = 0.8333-0.1667 0.8333 (   987 PWs)   bands (ev):

     3.4083   8.9626   9.4474  14.1845  15.6909  20.8799

          k = 0.7500-0.0833 0.7500 (   985 PWs)   bands (ev):

     5.1926   6.6893   8.4376  14.5635  16.2114  23.6812

          k = 0.6667-0.0000 0.6667 (   981 PWs)   bands (ev):

     4.6206   6.8526   8.3323  15.2662  17.0328  26.6361

          k = 0.0000 0.8333 0.0000 (   990 PWs)   bands (ev):

     2.9273   8.8436  13.4459  13.7528  13.7528  17.2476

          k = 0.9167-0.0833 0.9167 (   986 PWs)   bands (ev):

     4.2518   7.4283  11.2266  13.7001  14.8179  18.1954

          k = 0.8333 0.0000 0.8333 (   985 PWs)   bands (ev):

     5.4636   6.8076   8.8785  13.9701  15.4506  20.6717

          k = 0.0000-1.0000 0.0000 (   982 PWs)   bands (ev):

     5.0013   6.3336  13.1972  13.5389  13.5389  17.0181

          k =-0.1667 0.3333 0.0000 (   964 PWs)   bands (ev):

    -1.9673  14.5073  15.6883  19.9462  20.5437  21.8037

          k =-0.2500 0.4167-0.0833 (   974 PWs)   bands (ev):

    -1.0326  11.7519  14.8015  18.7801  20.1345  23.0970

          k =-0.3333 0.5000-0.1667 (   983 PWs)   bands (ev):

     0.2659   8.8717  14.5886  17.2925  20.1126  22.8381

          k = 0.5833-0.4167 0.7500 (   984 PWs)   bands (ev):

     1.9177   6.2448  14.7380  16.1300  20.3247  21.7286

          k = 0.5000-0.3333 0.6667 (   976 PWs)   bands (ev):

     3.7934   4.0416  15.0920  15.4385  20.7031  21.0400

          k =-0.1667 0.5000 0.0000 (   983 PWs)   bands (ev):

    -0.7225  12.8911  14.1586  16.4612  18.4391  20.5576

          k =-0.2500 0.5833-0.0833 (   984 PWs)   bands (ev):

     0.4498  10.3586  13.4392  14.8471  18.8977  22.0870

          k = 0.6667-0.3333 0.8333 (   986 PWs)   bands (ev):

     1.9766   7.6955  13.2611  13.7236  19.1234  24.0409

          k = 0.5833-0.2500 0.7500 (   979 PWs)   bands (ev):

     3.8377   5.2991  12.4921  13.9091  19.5775  23.3895

          k = 0.5000-0.1667 0.6667 (   983 PWs)   bands (ev):

     3.1862   6.0482  11.8986  14.6234  20.3288  22.7779

          k = 0.4167-0.0833 0.5833 (   985 PWs)   bands (ev):

     1.4301   8.5017  11.6927  15.6874  21.3636  22.4152

          k = 0.3333 0.0000 0.5000 (   984 PWs)   bands (ev):

     0.0194  10.7995  12.2849  17.0804  21.8219  22.5610

          k =-0.1667 0.6667-0.0000 (  1004 PWs)   bands (ev):

     1.0003  11.7308  12.4522  13.1934  17.3127  19.5715

          k = 0.7500-0.2500 0.9167 (   991 PWs)   bands (ev):

     2.3966   9.4145  11.1045  12.6269  18.0126  21.3156

          k = 0.6667-0.1667 0.8333 (   989 PWs)   bands (ev):

     4.1256   6.9833  10.0418  12.8336  18.4737  23.9055

          k = 0.5833-0.0833 0.7500 (   980 PWs)   bands (ev):

     4.7914   6.1611   9.3648  13.4389  19.1587  25.4101

          k = 0.5000 0.0000 0.6667 (   984 PWs)   bands (ev):

     2.9458   8.0122   9.5157  14.3960  20.1348  24.5984

          k = 0.8333-0.1667 1.0000 (   986 PWs)   bands (ev):

     3.1680   9.0702  11.0330  12.4339  16.6293  18.9429

          k = 0.7500-0.0833 0.9167 (   981 PWs)   bands (ev):

     4.7252   7.8777   9.0033  12.1465  17.5610  20.9109

          k = 0.6667 0.0000 0.8333 (   995 PWs)   bands (ev):

     6.1577   6.6769   7.6536  12.5997  18.2521  23.7382

          k =-0.1667-1.0000-0.0000 (   986 PWs)   bands (ev):

     5.2324   6.5761  10.8002  12.2028  16.4007  18.7279

          k = 0.6667-0.3333 1.0000 (   983 PWs)   bands (ev):

     1.7332   9.6381  11.1084  13.3207  20.7679  22.4144

          k = 0.5833-0.2500 0.9167 (   985 PWs)   bands (ev):

     3.3624   7.5624  10.7190  12.1459  21.5684  23.0181

          k = 0.5000-0.1667 0.8333 (   988 PWs)   bands (ev):

     5.1867   5.4648  10.9360  11.5283  21.9733  22.4610

          k = 0.6667-0.1667 1.0000 (   982 PWs)   bands (ev):

     3.8877   8.9411   9.6498  10.6383  20.1023  21.9128

          k = 0.5833-0.0833 0.9167 (   986 PWs)   bands (ev):

     5.6640   7.0827   8.8418  10.4073  21.1600  24.0218

          k = 0.5000 0.0000 0.8333 (   984 PWs)   bands (ev):

     5.0769   7.3162   8.7695  11.0578  21.9802  23.9895

          k =-0.3333-1.0000 0.0000 (   982 PWs)   bands (ev):

     5.9262   7.2835   8.7088  10.2986  19.8777  21.7276

          k =-0.5000-1.0000 0.0000 (   992 PWs)   bands (ev):

     7.0844   7.0844   8.0994   9.0543  23.7758  23.7758

     the Fermi energy is     7.8334 ev

!    total energy              =     -39.50357187 Ry
     Harris-Foulkes estimate   =     -39.50357189 Ry
     estimated scf accuracy    <       0.00000008 Ry

     total all-electron energy =      -485.646354 Ry

     The total energy is the sum of the following terms:

     one-electron contribution =       3.16826997 Ry
     hartree contribution      =       0.00582957 Ry
     xc contribution           =      -3.03179833 Ry
     ewald contribution        =      -5.40809419 Ry
     one-center paw contrib.   =     -34.23776440 Ry
     smearing contrib. (-TS)   =      -0.00001449 Ry

     convergence has been achieved in   5 iterations

     Writing output data file Al.save

     init_run     :      0.62s CPU      0.65s WALL (       1 calls)
     electrons    :      5.50s CPU      5.67s WALL (       1 calls)

     Called by init_run:
     wfcinit      :      0.27s CPU      0.28s WALL (       1 calls)
     potinit      :      0.06s CPU      0.07s WALL (       1 calls)

     Called by electrons:
     c_bands      :      4.33s CPU      4.46s WALL (       6 calls)
     sum_band     :      0.79s CPU      0.82s WALL (       6 calls)
     v_of_rho     :      0.05s CPU      0.05s WALL (       6 calls)
     newd         :      0.02s CPU      0.02s WALL (       6 calls)
     mix_rho      :      0.04s CPU      0.04s WALL (       6 calls)

     Called by c_bands:
     init_us_2    :      0.18s CPU      0.15s WALL (     936 calls)
     cegterg      :      4.17s CPU      4.30s WALL (     432 calls)

     Called by *egterg:
     h_psi        :      3.70s CPU      3.82s WALL (    1555 calls)
     s_psi        :      0.04s CPU      0.04s WALL (    1555 calls)
     g_psi        :      0.04s CPU      0.03s WALL (    1051 calls)
     cdiaghg      :      0.29s CPU      0.28s WALL (    1411 calls)

     Called by h_psi:
     add_vuspsi   :      0.04s CPU      0.05s WALL (    1555 calls)

     General routines
     calbec       :      0.09s CPU      0.09s WALL (    1987 calls)
     fft          :      0.03s CPU      0.03s WALL (      80 calls)
     fftw         :      4.05s CPU      3.97s WALL (   16724 calls)
     davcio       :      0.03s CPU      0.04s WALL (    1368 calls)

     Parallel routines
     fft_scatter  :      0.66s CPU      0.77s WALL (   16804 calls)

     PAW routines
     PAW_pot      :      0.30s CPU      0.31s WALL (       6 calls)
     PAW_ddot     :      0.04s CPU      0.03s WALL (      22 calls)
     PAW_symme    :      0.00s CPU      0.00s WALL (      12 calls)

     PWSCF        :     6.81s CPU         7.06s WALL


   This run was terminated on:   2:13:58  12Jul2015            

=------------------------------------------------------------------------------=
   JOB DONE.
=------------------------------------------------------------------------------=
