
     Program PWSCF v.5.0.2 (svn rev. 9656) starts on 26Jul2015 at  2:11:30 

     This program is part of the open-source Quantum ESPRESSO suite
     for quantum simulation of materials; please cite
         "P. Giannozzi et al., J. Phys.:Condens. Matter 21 395502 (2009);
          URL http://www.quantum-espresso.org", 
     in publications or presentations arising from this work. More details at
     http://www.quantum-espresso.org/quote.php

     Parallel version (MPI), running on     4 processors
     R & G space division:  proc/nbgrp/npool/nimage =       4

     Current dimensions of program PWSCF are:
     Max number of different atomic species (ntypx) = 10
     Max number of k-points (npk) =  40000
     Max angular momentum in pseudopotentials (lmaxx) =  3
     Waiting for input...
     Reading input from standard input
               file C.pbe-rrkjus.UPF: wavefunction(s)  2S 2P renormalized

     Subspace diagonalization in iterative solution of the eigenvalue problem:
     a serial algorithm will be used


     Parallelization info
     --------------------
     sticks:   dense  smooth     PW     G-vecs:    dense   smooth      PW
     Min         211      78     27                58589    14252    2645
     Max         212      79     28                58614    14319    2672
     Sum         847     313    109               234415    57119   10613



     bravais-lattice index     =            0
     lattice parameter (alat)  =       4.6500  a.u.
     unit-cell volume          =    1044.8904 (a.u.)^3
     number of atoms/cell      =            2
     number of atomic types    =            1
     number of electrons       =         8.00
     number of Kohn-Sham states=            8
     kinetic-energy cutoff     =      55.0000  Ry
     charge density cutoff     =     560.0000  Ry
     convergence threshold     =      1.0E-08
     mixing beta               =       0.7000
     number of iterations used =            8  plain     mixing
     Exchange-correlation      =  SLA  PW   PBE  PBE ( 1 4 3 4 0)
     EXX-fraction              =        0.00

     celldm(1)=   4.650000  celldm(2)=   0.000000  celldm(3)=   0.000000
     celldm(4)=   0.000000  celldm(5)=   0.000000  celldm(6)=   0.000000

     crystal axes: (cart. coord. in units of alat)
               a(1) = (   1.000000   0.000000   0.000000 )  
               a(2) = (   0.500000   0.866025   0.000000 )  
               a(3) = (   0.000000   0.000000  12.000000 )  

     reciprocal axes: (cart. coord. in units 2 pi/alat)
               b(1) = (  1.000000 -0.577350  0.000000 )  
               b(2) = (  0.000000  1.154701  0.000000 )  
               b(3) = (  0.000000  0.000000  0.083333 )  


     PseudoPot. # 1 for C  read from file:
     ./C.pbe-rrkjus.UPF
     MD5 check sum: 00fb224312de0c5b6853bd333518df6f
     Pseudo is Ultrasoft, Zval =  4.0
     Generated by new atomic code, or converted to UPF format
     Using radial grid of  627 points,  4 beta functions with: 
                l(1) =   0
                l(2) =   0
                l(3) =   1
                l(4) =   1
     Q(r) pseudized with 0 coefficients 


     atomic species   valence    mass     pseudopotential
        C              4.00    12.00000     C ( 1.00)

     24 Sym. Ops., with inversion, found (12 have fractional translation)



   Cartesian axes

     site n.     atom                  positions (alat units)
         1           C   tau(   1) = (   0.0000000   0.0000000   0.0000000  )
         2           C   tau(   2) = (   1.0000000   0.5773503   0.0000000  )

     number of k points=    27  gaussian smearing, width (Ry)=  0.0010
                       cart. coord. in units 2pi/alat
        k(    1) = (   0.0000000   0.0000000   0.0000000), wk =   0.0088889
        k(    2) = (   0.0000000   0.0769800   0.0000000), wk =   0.0533333
        k(    3) = (   0.0000000   0.1539601   0.0000000), wk =   0.0533333
        k(    4) = (   0.0000000   0.2309401   0.0000000), wk =   0.0533333
        k(    5) = (   0.0000000   0.3079201   0.0000000), wk =   0.0533333
        k(    6) = (   0.0000000   0.3849002   0.0000000), wk =   0.0533333
        k(    7) = (   0.0000000   0.4618802   0.0000000), wk =   0.0533333
        k(    8) = (   0.0000000   0.5388603   0.0000000), wk =   0.0533333
        k(    9) = (   0.0666667   0.1154701   0.0000000), wk =   0.0533333
        k(   10) = (   0.0666667   0.1924501   0.0000000), wk =   0.1066667
        k(   11) = (   0.0666667   0.2694301   0.0000000), wk =   0.1066667
        k(   12) = (   0.0666667   0.3464102   0.0000000), wk =   0.1066667
        k(   13) = (   0.0666667   0.4233902   0.0000000), wk =   0.1066667
        k(   14) = (   0.0666667   0.5003702   0.0000000), wk =   0.1066667
        k(   15) = (   0.0666667  -0.5773503   0.0000000), wk =   0.0533333
        k(   16) = (   0.1333333   0.2309401   0.0000000), wk =   0.0533333
        k(   17) = (   0.1333333   0.3079201   0.0000000), wk =   0.1066667
        k(   18) = (   0.1333333   0.3849002   0.0000000), wk =   0.1066667
        k(   19) = (   0.1333333   0.4618802   0.0000000), wk =   0.1066667
        k(   20) = (   0.1333333  -0.6158403   0.0000000), wk =   0.1066667
        k(   21) = (   0.2000000   0.3464102   0.0000000), wk =   0.0533333
        k(   22) = (   0.2000000   0.4233902   0.0000000), wk =   0.1066667
        k(   23) = (   0.2000000  -0.6543303   0.0000000), wk =   0.1066667
        k(   24) = (   0.2000000  -0.5773503   0.0000000), wk =   0.0533333
        k(   25) = (   0.2666667  -0.6928203   0.0000000), wk =   0.0533333
        k(   26) = (   0.2666667  -0.6158403   0.0000000), wk =   0.1066667
        k(   27) = (   0.3333333  -0.5773503   0.0000000), wk =   0.0177778

     Dense  grid:   234415 G-vectors     FFT dimensions: (  36,  36, 432)

     Smooth grid:    57119 G-vectors     FFT dimensions: (  24,  24, 270)

     Largest allocated arrays     est. size (Mb)     dimensions
        Kohn-Sham Wavefunctions         0.23 Mb     (   1856,    8)
        NL pseudopotentials             0.45 Mb     (   1856,   16)
        Each V/rho on FFT grid          2.14 Mb     ( 139968)
        Each G-vector array             0.45 Mb     (  58604)
        G-vector shells                 0.13 Mb     (  17455)
     Largest temporary arrays     est. size (Mb)     dimensions
        Auxiliary wavefunctions         0.91 Mb     (   1856,   32)
        Each subspace H/S matrix        0.02 Mb     (  32,  32)
        Each <psi_i|beta_j> matrix      0.00 Mb     (     16,    8)
        Arrays for rho mixing          17.09 Mb     ( 139968,   8)

     Initial potential from superposition of free atoms

     starting charge    7.99989, renormalised to    8.00000

     negative rho (up, down):  0.254E-04 0.000E+00
     Starting wfc are    8 randomized atomic wfcs

     total cpu time spent up to now is        3.8 secs

     per-process dynamical memory:    36.4 Mb

     Self-consistent Calculation

     iteration #  1     ecut=    55.00 Ry     beta=0.70
     Davidson diagonalization with overlap
     ethr =  1.00E-02,  avg # of iterations =  4.8

     negative rho (up, down):  0.175E-04 0.000E+00

     total cpu time spent up to now is       13.9 secs

     total energy              =     -22.75929635 Ry
     Harris-Foulkes estimate   =     -22.88376842 Ry
     estimated scf accuracy    <       0.20658676 Ry

     iteration #  2     ecut=    55.00 Ry     beta=0.70
     Davidson diagonalization with overlap
     ethr =  2.58E-03,  avg # of iterations =  4.6

     negative rho (up, down):  0.168E-04 0.000E+00

     total cpu time spent up to now is       22.7 secs

     total energy              =     -22.79044395 Ry
     Harris-Foulkes estimate   =     -22.79058154 Ry
     estimated scf accuracy    <       0.00250709 Ry

     iteration #  3     ecut=    55.00 Ry     beta=0.70
     Davidson diagonalization with overlap
     ethr =  3.13E-05,  avg # of iterations = 10.8

     negative rho (up, down):  0.186E-04 0.000E+00

     total cpu time spent up to now is       36.3 secs

     total energy              =     -22.79079666 Ry
     Harris-Foulkes estimate   =     -22.79076656 Ry
     estimated scf accuracy    <       0.00013886 Ry

     iteration #  4     ecut=    55.00 Ry     beta=0.70
     Davidson diagonalization with overlap
     ethr =  1.74E-06,  avg # of iterations =  4.7

     negative rho (up, down):  0.187E-04 0.000E+00

     total cpu time spent up to now is       45.3 secs

     total energy              =     -22.79080197 Ry
     Harris-Foulkes estimate   =     -22.79080116 Ry
     estimated scf accuracy    <       0.00000091 Ry

     iteration #  5     ecut=    55.00 Ry     beta=0.70
     Davidson diagonalization with overlap
     ethr =  1.13E-08,  avg # of iterations =  2.4

     negative rho (up, down):  0.187E-04 0.000E+00

     total cpu time spent up to now is       53.7 secs

     total energy              =     -22.79080228 Ry
     Harris-Foulkes estimate   =     -22.79080227 Ry
     estimated scf accuracy    <       0.00000003 Ry

     iteration #  6     ecut=    55.00 Ry     beta=0.70
     Davidson diagonalization with overlap
     ethr =  3.19E-10,  avg # of iterations =  2.0

     negative rho (up, down):  0.186E-04 0.000E+00

     total cpu time spent up to now is       61.5 secs

     End of self-consistent calculation

          k = 0.0000 0.0000 0.0000 (  7331 PWs)   bands (ev):

   -22.4916 -10.6018  -6.0247  -6.0247   0.3035   1.0417   1.2090   1.5613

          k = 0.0000 0.0770 0.0000 (  7331 PWs)   bands (ev):

   -22.3865 -10.4758  -6.4467  -6.2473   0.4466   1.1872   1.3561   1.7077

          k = 0.0000 0.1540 0.0000 (  7295 PWs)   bands (ev):

   -22.0717 -10.0999  -7.5694  -6.8115   0.8759   1.6233   1.7974   2.1466

          k = 0.0000 0.2309 0.0000 (  7251 PWs)   bands (ev):

   -21.5495  -9.4812  -9.1117  -7.5171   1.5909   2.3481   2.5329   2.8771

          k = 0.0000 0.3079 0.0000 (  7206 PWs)   bands (ev):

   -20.8242 -10.8398  -8.6348  -8.2037   2.5893   3.3276   3.5625   3.8111

          k = 0.0000 0.3849 0.0000 (  7196 PWs)   bands (ev):

   -19.9033 -12.6023  -8.7750  -7.5941   1.9770   3.8614   4.6831   4.8230

          k = 0.0000 0.4619 0.0000 (  7170 PWs)   bands (ev):

   -18.8027 -14.3004  -9.1781  -6.4458   0.2232   4.6052   5.4558   6.2613

          k = 0.0000 0.5389 0.0000 (  7092 PWs)   bands (ev):

   -17.5974 -15.8143  -9.3854  -5.4854  -1.0595   4.5143   7.2621   8.1046

          k = 0.0667 0.1155 0.0000 (  7311 PWs)   bands (ev):

   -22.1765 -10.2249  -7.1676  -6.6928   0.7329   1.4780   1.6504   2.0005

          k = 0.0667 0.1925 0.0000 (  7254 PWs)   bands (ev):

   -21.7580  -9.7273  -8.4110  -7.4186   1.3054   2.0588   2.2387   2.5852

          k = 0.0667 0.2694 0.0000 (  7220 PWs)   bands (ev):

   -21.1343  -9.9878  -8.9935  -8.1746   2.1628   2.9248   3.1213   3.4600

          k = 0.0667 0.3464 0.0000 (  7209 PWs)   bands (ev):

   -20.3111 -11.7026  -8.8346  -8.0456   2.8185   3.3017   4.1049   4.2980

          k = 0.0667 0.4234 0.0000 (  7171 PWs)   bands (ev):

   -19.2991 -13.4188  -9.3365  -6.9347   1.0270   4.6985   5.2041   5.5363

          k = 0.0667 0.5004 0.0000 (  7137 PWs)   bands (ev):

   -18.1277 -15.0362  -9.6482  -5.8138  -0.5440   5.0148   6.4287   7.2417

          k = 0.0667-0.5774 0.0000 (  7140 PWs)   bands (ev):

   -17.1623 -16.1539  -9.7537  -5.2228  -1.2913   4.9665   8.2793   8.4387

          k = 0.1333 0.2309 0.0000 (  7211 PWs)   bands (ev):

   -21.2380  -9.5060  -9.1139  -8.3796   2.0208   2.7830   2.9742   3.3157

          k = 0.1333 0.3079 0.0000 (  7218 PWs)   bands (ev):

   -20.5163 -10.8963  -9.2839  -8.2747   3.0199   3.3668   3.8007   4.0040

          k = 0.1333 0.3849 0.0000 (  7209 PWs)   bands (ev):

   -19.6013 -12.4845  -9.9562  -7.2411   1.6941   4.2977   5.0863   5.3277

          k = 0.1333 0.4619 0.0000 (  7159 PWs)   bands (ev):

   -18.5101 -14.0954 -10.3998  -6.0927   0.0607   5.8320   6.3605   6.6357

          k = 0.1333-0.6158 0.0000 (  7163 PWs)   bands (ev):

   -17.3204 -15.5627 -10.6214  -5.1101  -1.1826   6.2274   7.6629   8.3384

          k = 0.2000 0.3464 0.0000 (  7217 PWs)   bands (ev):

   -19.7026 -11.9055 -10.4559  -7.3452   1.9677   4.1576   4.9305   5.1807

          k = 0.2000 0.4234 0.0000 (  7189 PWs)   bands (ev):

   -18.7061 -13.1873 -11.2740  -6.2482   0.4872   5.5674   6.3126   6.6514

          k = 0.2000-0.6543 0.0000 (  7171 PWs)   bands (ev):

   -17.5600 -14.6139 -11.6989  -5.1079  -0.9060   7.2225   7.7587   8.0038

          k = 0.2000-0.5774 0.0000 (  7140 PWs)   bands (ev):

   -16.6240 -15.6593 -11.8311  -4.4567  -1.6461   7.9225   8.4066   8.9788

          k = 0.2667-0.6928 0.0000 (  7184 PWs)   bands (ev):

   -17.6485 -13.9645 -12.4002  -5.1208  -0.7618   7.0897   7.5267   8.2686

          k = 0.2667-0.6158 0.0000 (  7180 PWs)   bands (ev):

   -16.5083 -15.0125 -12.9406  -4.0371  -1.9004   7.8847   8.7820   9.6554

          k = 0.3333-0.5774 0.0000 (  7188 PWs)   bands (ev):

   -15.5526 -15.5526 -13.5628  -2.9490  -2.9490   7.6898   9.9570   9.9570

     the Fermi energy is    -2.9490 ev

!    total energy              =     -22.79080229 Ry
     Harris-Foulkes estimate   =     -22.79080229 Ry
     estimated scf accuracy    <          8.2E-10 Ry

     The total energy is the sum of the following terms:

     one-electron contribution =    -353.76040970 Ry
     hartree contribution      =     177.89007550 Ry
     xc contribution           =      -7.02469949 Ry
     ewald contribution        =     160.10424143 Ry
     smearing contrib. (-TS)   =      -0.00001003 Ry

     convergence has been achieved in   6 iterations

     Writing output data file graphene.save

     init_run     :      3.57s CPU      3.71s WALL (       1 calls)
     electrons    :     55.89s CPU     57.71s WALL (       1 calls)

     Called by init_run:
     wfcinit      :      1.43s CPU      1.50s WALL (       1 calls)
     potinit      :      0.97s CPU      0.99s WALL (       1 calls)

     Called by electrons:
     c_bands      :     39.15s CPU     40.31s WALL (       6 calls)
     sum_band     :     11.15s CPU     11.48s WALL (       6 calls)
     v_of_rho     :      2.38s CPU      2.55s WALL (       7 calls)
     newd         :      2.75s CPU      2.86s WALL (       7 calls)
     mix_rho      :      0.38s CPU      0.38s WALL (       6 calls)

     Called by c_bands:
     init_us_2    :      0.56s CPU      0.62s WALL (     351 calls)
     cegterg      :     38.43s CPU     39.45s WALL (     162 calls)

     Called by *egterg:
     h_psi        :     35.77s CPU     36.76s WALL (     978 calls)
     s_psi        :      0.46s CPU      0.46s WALL (     978 calls)
     g_psi        :      0.16s CPU      0.16s WALL (     789 calls)
     cdiaghg      :      0.40s CPU      0.39s WALL (     951 calls)

     Called by h_psi:
     add_vuspsi   :      0.48s CPU      0.49s WALL (     978 calls)

     General routines
     calbec       :      1.06s CPU      1.05s WALL (    1140 calls)
     fft          :      2.37s CPU      2.53s WALL (     107 calls)
     ffts         :      0.05s CPU      0.06s WALL (      13 calls)
     fftw         :     24.24s CPU     25.06s WALL (    9854 calls)
     interpolate  :      0.42s CPU      0.43s WALL (      13 calls)
     davcio       :      0.19s CPU      0.23s WALL (     513 calls)

     Parallel routines
     fft_scatter  :     14.14s CPU     14.88s WALL (    9974 calls)

     PWSCF        :  0m59.77s CPU     1m 1.77s WALL


   This run was terminated on:   2:12:32  26Jul2015            

=------------------------------------------------------------------------------=
   JOB DONE.
=------------------------------------------------------------------------------=
