
     Program PWSCF v.5.0.2 (svn rev. 9656) starts on 26Jul2015 at  1:30:34 

     This program is part of the open-source Quantum ESPRESSO suite
     for quantum simulation of materials; please cite
         "P. Giannozzi et al., J. Phys.:Condens. Matter 21 395502 (2009);
          URL http://www.quantum-espresso.org", 
     in publications or presentations arising from this work. More details at
     http://www.quantum-espresso.org/quote.php

     Parallel version (MPI), running on     4 processors
     R & G space division:  proc/nbgrp/npool/nimage =       4

     Current dimensions of program PWSCF are:
     Max number of different atomic species (ntypx) = 10
     Max number of k-points (npk) =  40000
     Max angular momentum in pseudopotentials (lmaxx) =  3
     Waiting for input...
     Reading input from standard input
               file C.pbe-rrkjus.UPF: wavefunction(s)  2S 2P renormalized

     Subspace diagonalization in iterative solution of the eigenvalue problem:
     a serial algorithm will be used


     Parallelization info
     --------------------
     sticks:   dense  smooth     PW     G-vecs:    dense   smooth      PW
     Min         207     105     30                57737    20465    3500
     Max         213     106     31                57743    20516    3557
     Sum         835     421    121               230957    81931   14073



     bravais-lattice index     =            0
     lattice parameter (alat)  =       4.6300  a.u.
     unit-cell volume          =    1031.4658 (a.u.)^3
     number of atoms/cell      =            2
     number of atomic types    =            1
     number of electrons       =         8.00
     number of Kohn-Sham states=            8
     kinetic-energy cutoff     =      70.0000  Ry
     charge density cutoff     =     560.0000  Ry
     convergence threshold     =      1.0E-08
     mixing beta               =       0.7000
     number of iterations used =            8  plain     mixing
     Exchange-correlation      =  SLA  PW   PBE  PBE ( 1 4 3 4 0)
     EXX-fraction              =        0.00

     celldm(1)=   4.630000  celldm(2)=   0.000000  celldm(3)=   0.000000
     celldm(4)=   0.000000  celldm(5)=   0.000000  celldm(6)=   0.000000

     crystal axes: (cart. coord. in units of alat)
               a(1) = (   1.000000   0.000000   0.000000 )  
               a(2) = (   0.500000   0.866025   0.000000 )  
               a(3) = (   0.000000   0.000000  12.000000 )  

     reciprocal axes: (cart. coord. in units 2 pi/alat)
               b(1) = (  1.000000 -0.577350  0.000000 )  
               b(2) = (  0.000000  1.154701  0.000000 )  
               b(3) = (  0.000000  0.000000  0.083333 )  


     PseudoPot. # 1 for C  read from file:
     ./C.pbe-rrkjus.UPF
     MD5 check sum: 00fb224312de0c5b6853bd333518df6f
     Pseudo is Ultrasoft, Zval =  4.0
     Generated by new atomic code, or converted to UPF format
     Using radial grid of  627 points,  4 beta functions with: 
                l(1) =   0
                l(2) =   0
                l(3) =   1
                l(4) =   1
     Q(r) pseudized with 0 coefficients 


     atomic species   valence    mass     pseudopotential
        C              4.00    12.00000     C ( 1.00)

     24 Sym. Ops., with inversion, found (12 have fractional translation)



   Cartesian axes

     site n.     atom                  positions (alat units)
         1           C   tau(   1) = (   0.0000000   0.0000000   0.0000000  )
         2           C   tau(   2) = (   1.0000000   0.5773503   0.0000000  )

     number of k points=    14  gaussian smearing, width (Ry)=  0.0010
                       cart. coord. in units 2pi/alat
        k(    1) = (   0.0000000   0.0000000   0.0000000), wk =   0.0200000
        k(    2) = (   0.0000000   0.1154701   0.0000000), wk =   0.1200000
        k(    3) = (   0.0000000   0.2309401   0.0000000), wk =   0.1200000
        k(    4) = (   0.0000000   0.3464102   0.0000000), wk =   0.1200000
        k(    5) = (   0.0000000   0.4618802   0.0000000), wk =   0.1200000
        k(    6) = (   0.0000000  -0.5773503   0.0000000), wk =   0.0600000
        k(    7) = (   0.1000000   0.1732051   0.0000000), wk =   0.1200000
        k(    8) = (   0.1000000   0.2886751   0.0000000), wk =   0.2400000
        k(    9) = (   0.1000000   0.4041452   0.0000000), wk =   0.2400000
        k(   10) = (   0.1000000  -0.6350853   0.0000000), wk =   0.2400000
        k(   11) = (   0.2000000   0.3464102   0.0000000), wk =   0.1200000
        k(   12) = (   0.2000000  -0.6928203   0.0000000), wk =   0.2400000
        k(   13) = (   0.2000000  -0.5773503   0.0000000), wk =   0.1200000
        k(   14) = (   0.3000000  -0.6350853   0.0000000), wk =   0.1200000

     Dense  grid:   230957 G-vectors     FFT dimensions: (  36,  36, 432)

     Smooth grid:    81931 G-vectors     FFT dimensions: (  25,  25, 300)

     Largest allocated arrays     est. size (Mb)     dimensions
        Kohn-Sham Wavefunctions         0.32 Mb     (   2625,    8)
        NL pseudopotentials             0.64 Mb     (   2625,   16)
        Each V/rho on FFT grid          2.14 Mb     ( 139968)
        Each G-vector array             0.44 Mb     (  57737)
        G-vector shells                 0.14 Mb     (  17759)
     Largest temporary arrays     est. size (Mb)     dimensions
        Auxiliary wavefunctions         1.28 Mb     (   2625,   32)
        Each subspace H/S matrix        0.02 Mb     (  32,  32)
        Each <psi_i|beta_j> matrix      0.00 Mb     (     16,    8)
        Arrays for rho mixing          17.09 Mb     ( 139968,   8)

     Initial potential from superposition of free atoms

     starting charge    7.99989, renormalised to    8.00000

     negative rho (up, down):  0.251E-04 0.000E+00
     Starting wfc are    8 randomized atomic wfcs

     total cpu time spent up to now is        3.1 secs

     per-process dynamical memory:    26.1 Mb

     Self-consistent Calculation

     iteration #  1     ecut=    70.00 Ry     beta=0.70
     Davidson diagonalization with overlap
     ethr =  1.00E-02,  avg # of iterations =  5.1

     negative rho (up, down):  0.178E-04 0.000E+00

     total cpu time spent up to now is       11.0 secs

     total energy              =     -22.75843686 Ry
     Harris-Foulkes estimate   =     -22.88789776 Ry
     estimated scf accuracy    <       0.21398569 Ry

     iteration #  2     ecut=    70.00 Ry     beta=0.70
     Davidson diagonalization with overlap
     ethr =  2.67E-03,  avg # of iterations =  3.9

     negative rho (up, down):  0.171E-04 0.000E+00

     total cpu time spent up to now is       17.6 secs

     total energy              =     -22.79083294 Ry
     Harris-Foulkes estimate   =     -22.79097664 Ry
     estimated scf accuracy    <       0.00254405 Ry

     iteration #  3     ecut=    70.00 Ry     beta=0.70
     Davidson diagonalization with overlap
     ethr =  3.18E-05,  avg # of iterations = 11.1

     negative rho (up, down):  0.187E-04 0.000E+00

     total cpu time spent up to now is       27.9 secs

     total energy              =     -22.79120204 Ry
     Harris-Foulkes estimate   =     -22.79117045 Ry
     estimated scf accuracy    <       0.00013878 Ry

     iteration #  4     ecut=    70.00 Ry     beta=0.70
     Davidson diagonalization with overlap
     ethr =  1.73E-06,  avg # of iterations =  5.4

     negative rho (up, down):  0.189E-04 0.000E+00

     total cpu time spent up to now is       34.9 secs

     total energy              =     -22.79120745 Ry
     Harris-Foulkes estimate   =     -22.79120659 Ry
     estimated scf accuracy    <       0.00000098 Ry

     iteration #  5     ecut=    70.00 Ry     beta=0.70
     Davidson diagonalization with overlap
     ethr =  1.22E-08,  avg # of iterations =  2.4

     negative rho (up, down):  0.188E-04 0.000E+00

     total cpu time spent up to now is       41.4 secs

     total energy              =     -22.79120779 Ry
     Harris-Foulkes estimate   =     -22.79120778 Ry
     estimated scf accuracy    <       0.00000003 Ry

     iteration #  6     ecut=    70.00 Ry     beta=0.70
     Davidson diagonalization with overlap
     ethr =  3.17E-10,  avg # of iterations =  2.0

     negative rho (up, down):  0.188E-04 0.000E+00

     total cpu time spent up to now is       47.3 secs

     End of self-consistent calculation

          k = 0.0000 0.0000 0.0000 ( 10203 PWs)   bands (ev):

   -22.5463 -10.6400  -5.9711  -5.9711   0.3133   1.0535   1.2207   1.5769

          k = 0.0000 0.1155 0.0000 ( 10167 PWs)   bands (ev):

   -22.3080 -10.3540  -6.8888  -6.4520   0.6380   1.3838   1.5545   1.9090

          k = 0.0000 0.2309 0.0000 ( 10145 PWs)   bands (ev):

   -21.5970  -9.5074  -9.0757  -7.4827   1.6117   2.3716   2.5560   2.9041

          k = 0.0000 0.3464 0.0000 ( 10185 PWs)   bands (ev):

   -20.4259 -11.7059  -8.4851  -8.1468   3.0063   3.2276   4.0488   4.2249

          k = 0.0000 0.4619 0.0000 ( 10216 PWs)   bands (ev):

   -18.8273 -14.3029  -9.1628  -6.4373   0.3000   4.7760   5.5148   6.3205

          k = 0.0000-0.5774 0.0000 ( 10252 PWs)   bands (ev):

   -17.2252 -16.2549  -9.3989  -5.2951  -1.2118   4.6789   8.2676   8.4195

          k = 0.1000 0.1732 0.0000 ( 10144 PWs)   bands (ev):

   -21.8334  -9.7873  -8.2390  -7.4128   1.2877   2.0432   2.2222   2.5731

          k = 0.1000 0.2887 0.0000 ( 10180 PWs)   bands (ev):

   -20.8923 -10.4093  -8.6794  -8.6713   2.5850   3.3504   3.5575   3.8902

          k = 0.1000 0.4041 0.0000 ( 10198 PWs)   bands (ev):

   -19.5058 -12.9378  -9.5975  -7.1121   1.4880   4.5167   5.3263   5.5597

          k = 0.1000-0.6351 0.0000 ( 10212 PWs)   bands (ev):

   -17.7472 -15.3443 -10.0789  -5.4438  -0.8193   5.7198   7.0856   7.8774

          k = 0.2000 0.3464 0.0000 ( 10218 PWs)   bands (ev):

   -19.7354 -11.8791 -10.4558  -7.3478   2.0748   4.2007   4.9775   5.2267

          k = 0.2000-0.6928 0.0000 ( 10206 PWs)   bands (ev):

   -18.1666 -13.8919 -11.5340  -5.6507  -0.1596   6.4312   7.1258   7.5627

          k = 0.2000-0.5774 0.0000 ( 10230 PWs)   bands (ev):

   -16.6172 -15.6806 -11.8379  -4.4236  -1.5869   8.1181   8.4915   9.0711

          k = 0.3000-0.6351 0.0000 ( 10244 PWs)   bands (ev):

   -16.5146 -14.8074 -13.2078  -3.9408  -1.8735   7.8774   8.8414  10.2792

     the Fermi energy is    -2.0236 ev

!    total energy              =     -22.79120780 Ry
     Harris-Foulkes estimate   =     -22.79120780 Ry
     estimated scf accuracy    <          7.6E-10 Ry

     The total energy is the sum of the following terms:

     one-electron contribution =    -355.13112126 Ry
     hartree contribution      =     178.58732525 Ry
     xc contribution           =      -7.04324821 Ry
     ewald contribution        =     160.79583643 Ry
     smearing contrib. (-TS)   =      -0.00000000 Ry

     convergence has been achieved in   6 iterations

     Writing output data file graphene.save

     init_run     :      2.86s CPU      3.03s WALL (       1 calls)
     electrons    :     41.77s CPU     44.16s WALL (       1 calls)

     Called by init_run:
     wfcinit      :      0.85s CPU      0.89s WALL (       1 calls)
     potinit      :      0.92s CPU      0.96s WALL (       1 calls)

     Called by electrons:
     c_bands      :     26.93s CPU     28.17s WALL (       6 calls)
     sum_band     :      8.27s CPU      8.86s WALL (       6 calls)
     v_of_rho     :      2.72s CPU      2.98s WALL (       7 calls)
     newd         :      3.27s CPU      3.54s WALL (       7 calls)
     mix_rho      :      0.44s CPU      0.46s WALL (       6 calls)

     Called by c_bands:
     init_us_2    :      0.46s CPU      0.52s WALL (     182 calls)
     cegterg      :     26.35s CPU     27.47s WALL (      84 calls)

     Called by *egterg:
     h_psi        :     23.69s CPU     24.75s WALL (     517 calls)
     s_psi        :      0.47s CPU      0.46s WALL (     517 calls)
     g_psi        :      0.12s CPU      0.12s WALL (     419 calls)
     cdiaghg      :      0.21s CPU      0.21s WALL (     503 calls)

     Called by h_psi:
     add_vuspsi   :      0.43s CPU      0.45s WALL (     517 calls)

     General routines
     calbec       :      0.80s CPU      0.80s WALL (     601 calls)
     fft          :      2.68s CPU      2.94s WALL (     107 calls)
     ffts         :      0.09s CPU      0.09s WALL (      13 calls)
     fftw         :     16.07s CPU     16.98s WALL (    5142 calls)
     interpolate  :      0.52s CPU      0.57s WALL (      13 calls)
     davcio       :      0.15s CPU      0.18s WALL (     266 calls)

     Parallel routines
     fft_scatter  :     11.34s CPU     12.18s WALL (    5262 calls)

     PWSCF        :    44.91s CPU        47.47s WALL


   This run was terminated on:   1:31:21  26Jul2015            

=------------------------------------------------------------------------------=
   JOB DONE.
=------------------------------------------------------------------------------=
