
     Program PWSCF v.5.0.2 (svn rev. 9656) starts on 11Jul2015 at 20:26:21 

     This program is part of the open-source Quantum ESPRESSO suite
     for quantum simulation of materials; please cite
         "P. Giannozzi et al., J. Phys.:Condens. Matter 21 395502 (2009);
          URL http://www.quantum-espresso.org", 
     in publications or presentations arising from this work. More details at
     http://www.quantum-espresso.org/quote.php

     Parallel version (MPI), running on     4 processors
     R & G space division:  proc/nbgrp/npool/nimage =       4

     Current dimensions of program PWSCF are:
     Max number of different atomic species (ntypx) = 10
     Max number of k-points (npk) =  40000
     Max angular momentum in pseudopotentials (lmaxx) =  3
     Waiting for input...
     Reading input from standard input
               file Cu.pbe.UPF: wavefunction(s)  4S 3D renormalized

     Subspace diagonalization in iterative solution of the eigenvalue problem:
     a serial algorithm will be used


     Parallelization info
     --------------------
     sticks:   dense  smooth     PW     G-vecs:    dense   smooth      PW
     Min         214     214     63                 4156     4156     684
     Max         217     217     64                 4157     4157     688
     Sum         859     859    253                16625    16625    2741



     bravais-lattice index     =            2
     lattice parameter (alat)  =      10.2000  a.u.
     unit-cell volume          =     265.3020 (a.u.)^3
     number of atoms/cell      =            2
     number of atomic types    =            1
     number of electrons       =        22.00
     number of Kohn-Sham states=           15
     kinetic-energy cutoff     =      60.0000  Ry
     charge density cutoff     =     240.0000  Ry
     convergence threshold     =      1.0E-07
     mixing beta               =       0.7000
     number of iterations used =            8  plain     mixing
     Exchange-correlation      =  SLA  PW   PBX  PBC ( 1 4 3 4 0)
     EXX-fraction              =        0.00

     celldm(1)=  10.200000  celldm(2)=   0.000000  celldm(3)=   0.000000
     celldm(4)=   0.000000  celldm(5)=   0.000000  celldm(6)=   0.000000

     crystal axes: (cart. coord. in units of alat)
               a(1) = (  -0.500000   0.000000   0.500000 )  
               a(2) = (   0.000000   0.500000   0.500000 )  
               a(3) = (  -0.500000   0.500000   0.000000 )  

     reciprocal axes: (cart. coord. in units 2 pi/alat)
               b(1) = ( -1.000000 -1.000000  1.000000 )  
               b(2) = (  1.000000  1.000000  1.000000 )  
               b(3) = ( -1.000000  1.000000 -1.000000 )  


     PseudoPot. # 1 for Cu read from file:
     ./Cu.pbe.UPF
     MD5 check sum: 0c51aa2b3b25e0d1c3270f17c0a46a12
     Pseudo is Projector augmented-wave + core cor, Zval = 11.0
     Generated using "atomic" code by A. Dal Corso  v.5.0.99 svn rev. 10869
     Shape of augmentation charge: BESSEL
     Using radial grid of 1199 points,  6 beta functions with: 
                l(1) =   0
                l(2) =   0
                l(3) =   1
                l(4) =   1
                l(5) =   2
                l(6) =   2
     Q(r) pseudized with 0 coefficients 


     atomic species   valence    mass     pseudopotential
        Cu            11.00    63.54600     Cu( 1.00)

     48 Sym. Ops., with inversion, found (24 have fractional translation)



   Cartesian axes

     site n.     atom                  positions (alat units)
         1           Cu  tau(   1) = (   0.0000000   0.0000000   0.0000000  )
         2           Cu  tau(   2) = (   0.2500000   0.2500000   0.2500000  )

     number of k points=    84  gaussian smearing, width (Ry)=  0.0030
                       cart. coord. in units 2pi/alat
        k(    1) = (   0.0000000   0.0000000   0.0000000), wk =   0.0009103
        k(    2) = (  -0.0769231   0.0769231  -0.0769231), wk =   0.0072827
        k(    3) = (  -0.1538462   0.1538462  -0.1538462), wk =   0.0072827
        k(    4) = (  -0.2307692   0.2307692  -0.2307692), wk =   0.0072827
        k(    5) = (  -0.3076923   0.3076923  -0.3076923), wk =   0.0072827
        k(    6) = (  -0.3846154   0.3846154  -0.3846154), wk =   0.0072827
        k(    7) = (  -0.4615385   0.4615385  -0.4615385), wk =   0.0072827
        k(    8) = (   0.0000000   0.1538462   0.0000000), wk =   0.0054620
        k(    9) = (  -0.0769231   0.2307692  -0.0769231), wk =   0.0218480
        k(   10) = (  -0.1538462   0.3076923  -0.1538462), wk =   0.0218480
        k(   11) = (  -0.2307692   0.3846154  -0.2307692), wk =   0.0218480
        k(   12) = (  -0.3076923   0.4615385  -0.3076923), wk =   0.0218480
        k(   13) = (  -0.3846154   0.5384615  -0.3846154), wk =   0.0218480
        k(   14) = (   0.5384615  -0.3846154   0.5384615), wk =   0.0218480
        k(   15) = (   0.4615385  -0.3076923   0.4615385), wk =   0.0218480
        k(   16) = (   0.3846154  -0.2307692   0.3846154), wk =   0.0218480
        k(   17) = (   0.3076923  -0.1538462   0.3076923), wk =   0.0218480
        k(   18) = (   0.2307692  -0.0769231   0.2307692), wk =   0.0218480
        k(   19) = (   0.1538462   0.0000000   0.1538462), wk =   0.0109240
        k(   20) = (   0.0000000   0.3076923   0.0000000), wk =   0.0054620
        k(   21) = (  -0.0769231   0.3846154  -0.0769231), wk =   0.0218480
        k(   22) = (  -0.1538462   0.4615385  -0.1538462), wk =   0.0218480
        k(   23) = (  -0.2307692   0.5384615  -0.2307692), wk =   0.0218480
        k(   24) = (  -0.3076923   0.6153846  -0.3076923), wk =   0.0218480
        k(   25) = (   0.6153846  -0.3076923   0.6153846), wk =   0.0218480
        k(   26) = (   0.5384615  -0.2307692   0.5384615), wk =   0.0218480
        k(   27) = (   0.4615385  -0.1538462   0.4615385), wk =   0.0218480
        k(   28) = (   0.3846154  -0.0769231   0.3846154), wk =   0.0218480
        k(   29) = (   0.3076923   0.0000000   0.3076923), wk =   0.0109240
        k(   30) = (   0.0000000   0.4615385   0.0000000), wk =   0.0054620
        k(   31) = (  -0.0769231   0.5384615  -0.0769231), wk =   0.0218480
        k(   32) = (  -0.1538462   0.6153846  -0.1538462), wk =   0.0218480
        k(   33) = (  -0.2307692   0.6923077  -0.2307692), wk =   0.0218480
        k(   34) = (   0.6923077  -0.2307692   0.6923077), wk =   0.0218480
        k(   35) = (   0.6153846  -0.1538462   0.6153846), wk =   0.0218480
        k(   36) = (   0.5384615  -0.0769231   0.5384615), wk =   0.0218480
        k(   37) = (   0.4615385   0.0000000   0.4615385), wk =   0.0109240
        k(   38) = (   0.0000000   0.6153846   0.0000000), wk =   0.0054620
        k(   39) = (  -0.0769231   0.6923077  -0.0769231), wk =   0.0218480
        k(   40) = (  -0.1538462   0.7692308  -0.1538462), wk =   0.0218480
        k(   41) = (   0.7692308  -0.1538462   0.7692308), wk =   0.0218480
        k(   42) = (   0.6923077  -0.0769231   0.6923077), wk =   0.0218480
        k(   43) = (   0.6153846   0.0000000   0.6153846), wk =   0.0109240
        k(   44) = (   0.0000000   0.7692308   0.0000000), wk =   0.0054620
        k(   45) = (  -0.0769231   0.8461538  -0.0769231), wk =   0.0218480
        k(   46) = (   0.8461538  -0.0769231   0.8461538), wk =   0.0218480
        k(   47) = (   0.7692308   0.0000000   0.7692308), wk =   0.0109240
        k(   48) = (   0.0000000   0.9230769   0.0000000), wk =   0.0054620
        k(   49) = (   0.9230769   0.0000000   0.9230769), wk =   0.0109240
        k(   50) = (  -0.1538462   0.3076923   0.0000000), wk =   0.0218480
        k(   51) = (  -0.2307692   0.3846154  -0.0769231), wk =   0.0436959
        k(   52) = (  -0.3076923   0.4615385  -0.1538462), wk =   0.0436959
        k(   53) = (  -0.3846154   0.5384615  -0.2307692), wk =   0.0436959
        k(   54) = (   0.5384615  -0.3846154   0.6923077), wk =   0.0436959
        k(   55) = (  -0.1538462   0.4615385   0.0000000), wk =   0.0218480
        k(   56) = (  -0.2307692   0.5384615  -0.0769231), wk =   0.0436959
        k(   57) = (  -0.3076923   0.6153846  -0.1538462), wk =   0.0436959
        k(   58) = (   0.6153846  -0.3076923   0.7692308), wk =   0.0436959
        k(   59) = (   0.5384615  -0.2307692   0.6923077), wk =   0.0436959
        k(   60) = (   0.4615385  -0.1538462   0.6153846), wk =   0.0436959
        k(   61) = (   0.3846154  -0.0769231   0.5384615), wk =   0.0436959
        k(   62) = (   0.3076923   0.0000000   0.4615385), wk =   0.0218480
        k(   63) = (  -0.1538462   0.6153846   0.0000000), wk =   0.0218480
        k(   64) = (  -0.2307692   0.6923077  -0.0769231), wk =   0.0436959
        k(   65) = (   0.6923077  -0.2307692   0.8461538), wk =   0.0436959
        k(   66) = (   0.6153846  -0.1538462   0.7692308), wk =   0.0436959
        k(   67) = (   0.5384615  -0.0769231   0.6923077), wk =   0.0436959
        k(   68) = (   0.4615385   0.0000000   0.6153846), wk =   0.0218480
        k(   69) = (  -0.1538462   0.7692308   0.0000000), wk =   0.0218480
        k(   70) = (   0.7692308  -0.1538462   0.9230769), wk =   0.0436959
        k(   71) = (   0.6923077  -0.0769231   0.8461538), wk =   0.0436959
        k(   72) = (   0.6153846   0.0000000   0.7692308), wk =   0.0218480
        k(   73) = (   0.8461538  -0.0769231   1.0000000), wk =   0.0218480
        k(   74) = (   0.7692308   0.0000000   0.9230769), wk =   0.0218480
        k(   75) = (  -0.3076923   0.6153846   0.0000000), wk =   0.0218480
        k(   76) = (   0.6153846  -0.3076923   0.9230769), wk =   0.0436959
        k(   77) = (   0.5384615  -0.2307692   0.8461538), wk =   0.0436959
        k(   78) = (   0.6923077  -0.2307692   1.0000000), wk =   0.0218480
        k(   79) = (   0.6153846  -0.1538462   0.9230769), wk =   0.0436959
        k(   80) = (   0.5384615  -0.0769231   0.8461538), wk =   0.0436959
        k(   81) = (   0.4615385   0.0000000   0.7692308), wk =   0.0218480
        k(   82) = (   0.6923077  -0.0769231   1.0000000), wk =   0.0218480
        k(   83) = (   0.6153846   0.0000000   0.9230769), wk =   0.0218480
        k(   84) = (   0.5384615  -0.0769231   1.0000000), wk =   0.0218480

     Dense  grid:    16625 G-vectors     FFT dimensions: (  36,  36,  36)

     Largest allocated arrays     est. size (Mb)     dimensions
        Kohn-Sham Wavefunctions         0.12 Mb     (    524,   15)
        NL pseudopotentials             0.29 Mb     (    524,   36)
        Each V/rho on FFT grid          0.18 Mb     (  11664)
        Each G-vector array             0.03 Mb     (   4157)
        G-vector shells                 0.00 Mb     (    212)
     Largest temporary arrays     est. size (Mb)     dimensions
        Auxiliary wavefunctions         0.48 Mb     (    524,   60)
        Each subspace H/S matrix        0.05 Mb     (  60,  60)
        Each <psi_i|beta_j> matrix      0.01 Mb     (     36,   15)
        Arrays for rho mixing           1.42 Mb     (  11664,   8)

     Check: negative/imaginary core charge=   -0.000021    0.000000

     Initial potential from superposition of free atoms

     starting charge   21.99954, renormalised to   22.00000
     Starting wfc are   18 randomized atomic wfcs
     Checking if some PAW data can be deallocated... 

     total cpu time spent up to now is        4.5 secs

     per-process dynamical memory:    12.0 Mb

     Self-consistent Calculation

     iteration #  1     ecut=    60.00 Ry     beta=0.70
     Davidson diagonalization with overlap
     ethr =  1.00E-02,  avg # of iterations =  3.8

     Threshold (ethr) on eigenvalues was too large:
     Diagonalizing with lowered threshold

     Davidson diagonalization with overlap
     ethr =  2.03E-05,  avg # of iterations =  4.5

     total cpu time spent up to now is       21.8 secs

     total energy              =    -426.03756293 Ry
     Harris-Foulkes estimate   =    -426.03801132 Ry
     estimated scf accuracy    <       0.00564651 Ry

     iteration #  2     ecut=    60.00 Ry     beta=0.70
     Davidson diagonalization with overlap
     ethr =  2.57E-05,  avg # of iterations =  2.1

     total cpu time spent up to now is       29.2 secs

     total energy              =    -426.03615604 Ry
     Harris-Foulkes estimate   =    -426.03966587 Ry
     estimated scf accuracy    <       0.00729308 Ry

     iteration #  3     ecut=    60.00 Ry     beta=0.70
     Davidson diagonalization with overlap
     ethr =  2.57E-05,  avg # of iterations =  2.2

     total cpu time spent up to now is       36.7 secs

     total energy              =    -426.03798013 Ry
     Harris-Foulkes estimate   =    -426.03882234 Ry
     estimated scf accuracy    <       0.00291030 Ry

     iteration #  4     ecut=    60.00 Ry     beta=0.70
     Davidson diagonalization with overlap
     ethr =  1.32E-05,  avg # of iterations =  1.1

     total cpu time spent up to now is       42.6 secs

     total energy              =    -426.03835517 Ry
     Harris-Foulkes estimate   =    -426.03835578 Ry
     estimated scf accuracy    <       0.00000361 Ry

     iteration #  5     ecut=    60.00 Ry     beta=0.70
     Davidson diagonalization with overlap
     ethr =  1.64E-08,  avg # of iterations =  3.9

     total cpu time spent up to now is       52.6 secs

     total energy              =    -426.03838306 Ry
     Harris-Foulkes estimate   =    -426.03838363 Ry
     estimated scf accuracy    <       0.00000426 Ry

     iteration #  6     ecut=    60.00 Ry     beta=0.70
     Davidson diagonalization with overlap
     ethr =  1.64E-08,  avg # of iterations =  1.0

     total cpu time spent up to now is       58.6 secs

     total energy              =    -426.03838316 Ry
     Harris-Foulkes estimate   =    -426.03838321 Ry
     estimated scf accuracy    <       0.00000134 Ry

     iteration #  7     ecut=    60.00 Ry     beta=0.70
     Davidson diagonalization with overlap
     ethr =  6.09E-09,  avg # of iterations =  1.0

     total cpu time spent up to now is       64.6 secs

     total energy              =    -426.03838318 Ry
     Harris-Foulkes estimate   =    -426.03838318 Ry
     estimated scf accuracy    <       0.00000104 Ry

     iteration #  8     ecut=    60.00 Ry     beta=0.70
     Davidson diagonalization with overlap
     ethr =  4.73E-09,  avg # of iterations =  1.0

     total cpu time spent up to now is       70.7 secs

     total energy              =    -426.03838321 Ry
     Harris-Foulkes estimate   =    -426.03838318 Ry
     estimated scf accuracy    <       0.00000091 Ry

     iteration #  9     ecut=    60.00 Ry     beta=0.70
     Davidson diagonalization with overlap
     ethr =  4.15E-09,  avg # of iterations =  1.0

     total cpu time spent up to now is       76.8 secs

     total energy              =    -426.03838322 Ry
     Harris-Foulkes estimate   =    -426.03838321 Ry
     estimated scf accuracy    <       0.00000107 Ry

     iteration # 10     ecut=    60.00 Ry     beta=0.70
     Davidson diagonalization with overlap
     ethr =  4.15E-09,  avg # of iterations =  1.0

     total cpu time spent up to now is       82.9 secs

     total energy              =    -426.03838328 Ry
     Harris-Foulkes estimate   =    -426.03838322 Ry
     estimated scf accuracy    <       0.00000108 Ry

     iteration # 11     ecut=    60.00 Ry     beta=0.70
     Davidson diagonalization with overlap
     ethr =  4.15E-09,  avg # of iterations =  1.0

     total cpu time spent up to now is       89.1 secs

     total energy              =    -426.03838326 Ry
     Harris-Foulkes estimate   =    -426.03838328 Ry
     estimated scf accuracy    <       0.00000137 Ry

     iteration # 12     ecut=    60.00 Ry     beta=0.70
     Davidson diagonalization with overlap
     ethr =  4.15E-09,  avg # of iterations =  1.0

     total cpu time spent up to now is       95.3 secs

     total energy              =    -426.03838328 Ry
     Harris-Foulkes estimate   =    -426.03838326 Ry
     estimated scf accuracy    <       0.00000120 Ry

     iteration # 13     ecut=    60.00 Ry     beta=0.70
     Davidson diagonalization with overlap
     ethr =  4.15E-09,  avg # of iterations =  1.0

     total cpu time spent up to now is      101.4 secs

     total energy              =    -426.03838323 Ry
     Harris-Foulkes estimate   =    -426.03838328 Ry
     estimated scf accuracy    <       0.00000133 Ry

     iteration # 14     ecut=    60.00 Ry     beta=0.70
     Davidson diagonalization with overlap
     ethr =  4.15E-09,  avg # of iterations =  1.0

     total cpu time spent up to now is      107.6 secs

     total energy              =    -426.03838325 Ry
     Harris-Foulkes estimate   =    -426.03838323 Ry
     estimated scf accuracy    <       0.00000103 Ry

     iteration # 15     ecut=    60.00 Ry     beta=0.70
     Davidson diagonalization with overlap
     ethr =  4.15E-09,  avg # of iterations =  1.0

     total cpu time spent up to now is      113.8 secs

     total energy              =    -426.03838310 Ry
     Harris-Foulkes estimate   =    -426.03838325 Ry
     estimated scf accuracy    <       0.00000113 Ry

     iteration # 16     ecut=    60.00 Ry     beta=0.70
     Davidson diagonalization with overlap
     ethr =  4.15E-09,  avg # of iterations =  1.0

     total cpu time spent up to now is      119.9 secs

     total energy              =    -426.03838296 Ry
     Harris-Foulkes estimate   =    -426.03838312 Ry
     estimated scf accuracy    <       0.00000044 Ry

     iteration # 17     ecut=    60.00 Ry     beta=0.70
     Davidson diagonalization with overlap
     ethr =  2.00E-09,  avg # of iterations =  2.0

     total cpu time spent up to now is      126.6 secs

     End of self-consistent calculation

          k = 0.0000 0.0000 0.0000 (  2085 PWs)   bands (ev):

     0.6670   3.9773   3.9773   3.9773   4.0000   4.0000   5.0326   5.0326
     5.0326   5.6563   5.6563  16.3824  16.3824  16.3824  17.3255

          k =-0.0769 0.0769-0.0769 (  2085 PWs)   bands (ev):

     0.7578   3.9212   3.9212   3.9791   4.0709   4.0709   5.0137   5.0294
     5.0294   5.6568   5.6568  14.8910  15.9256  15.9256  17.7966

          k =-0.1538 0.1538-0.1538 (  2076 PWs)   bands (ev):

     1.0263   3.8798   3.8798   3.9862   4.1487   4.1487   4.9628   5.0273
     5.0273   5.6562   5.6562  12.9207  15.2765  15.2765  17.7137

          k =-0.2308 0.2308-0.2308 (  2079 PWs)   bands (ev):

     1.4577   3.8674   3.8674   4.0021   4.1990   4.1990   4.8992   5.0452
     5.0452   5.6495   5.6495  11.0378  14.7078  14.7078  17.5751

          k =-0.3077 0.3077-0.3077 (  2072 PWs)   bands (ev):

     2.0143   3.8840   3.8840   4.0257   4.2027   4.2027   4.8677   5.0963
     5.0963   5.6322   5.6322   9.3192  14.2590  14.2590  17.5199

          k =-0.3846 0.3846-0.3846 (  2072 PWs)   bands (ev):

     2.6004   3.9245   3.9245   4.0400   4.1641   4.1641   4.9665   5.1684
     5.1684   5.6045   5.6045   7.8194  13.9481  13.9481  17.5653

          k =-0.4615 0.4615-0.4615 (  2072 PWs)   bands (ev):

     3.0092   3.9730   3.9730   4.0286   4.1118   4.1118   5.2252   5.2252
     5.3059   5.5785   5.5785   6.6759  13.7888  13.7888  17.6834

          k = 0.0000 0.1538 0.0000 (  2081 PWs)   bands (ev):

     0.7882   3.8681   3.9826   3.9826   4.0264   4.1148   4.9579   5.0542
     5.0542   5.6348   5.6767  15.2325  15.2325  15.7459  16.7908

          k =-0.0769 0.2308-0.0769 (  2070 PWs)   bands (ev):

     0.9980   3.8188   3.9542   3.9882   4.0953   4.1848   4.8844   5.0649
     5.0760   5.6141   5.6918  13.5803  14.5652  15.4094  16.9872

          k =-0.1538 0.3077-0.1538 (  2071 PWs)   bands (ev):

     1.3764   3.7945   3.9381   3.9976   4.1550   4.2474   4.8178   5.0651
     5.1081   5.5936   5.6993  11.6877  14.0182  14.8408  17.3040

          k =-0.2308 0.3846-0.2308 (  2071 PWs)   bands (ev):

     1.8951   3.7991   3.9466   4.0132   4.1733   4.2725   4.7853   5.0859
     5.1604   5.5715   5.6949   9.9188  13.6262  14.2557  17.1094

          k =-0.3077 0.4615-0.3077 (  2074 PWs)   bands (ev):

     2.4827   3.8286   3.9729   4.0276   4.1529   4.2483   4.8358   5.1639
     5.2177   5.5533   5.6745   8.3394  13.4109  13.7300  16.9038

          k =-0.3846 0.5385-0.3846 (  2077 PWs)   bands (ev):

     2.9718   3.8692   3.9874   4.0297   4.1336   4.1922   5.0073   5.2363
     5.3725   5.5602   5.6390   7.0312  13.3126  13.3855  16.8508

          k = 0.5385-0.3846 0.5385 (  2082 PWs)   bands (ev):

     3.1193   3.9058   3.9486   4.0477   4.1272   4.1680   5.1227   5.1912
     5.5710   5.6003   5.6293   6.4827  13.0427  13.5519  16.9717

          k = 0.4615-0.3077 0.4615 (  2080 PWs)   bands (ev):

     2.8328   3.8889   3.9392   4.0569   4.1083   4.2270   5.0170   5.1089
     5.3359   5.5537   5.6468   7.4322  12.9453  13.8979  17.2632

          k = 0.3846-0.2308 0.3846 (  2075 PWs)   bands (ev):

     2.2850   3.8401   3.9399   4.0233   4.1498   4.2710   4.8655   5.0273
     5.2459   5.5591   5.6799   8.8461  13.0291  14.3967  17.7036

          k = 0.3077-0.1538 0.3077 (  2078 PWs)   bands (ev):

     1.7083   3.8155   3.9232   4.0028   4.1664   4.2728   4.8525   4.9787
     5.1769   5.5828   5.6944  10.4956  13.2887  15.0093  18.0513

          k = 0.2308-0.0769 0.2308 (  2075 PWs)   bands (ev):

     1.2318   3.8209   3.9181   3.9920   4.1415   4.2255   4.9005   4.9748
     5.1228   5.6088   5.6921  12.3164  13.7101  15.6744  18.0438

          k = 0.1538 0.0000 0.1538 (  2075 PWs)   bands (ev):

     0.9081   3.8576   3.9282   3.9864   4.0903   4.1494   4.9630   4.9991
     5.0773   5.6337   5.6777  14.1563  14.3484  16.1889  17.5826

          k = 0.0000 0.3077 0.0000 (  2061 PWs)   bands (ev):

     1.1483   3.7605   3.9954   3.9954   4.1037   4.2403   4.7681   5.1211
     5.1211   5.5710   5.7163  13.8711  13.8711  14.4444  15.9922

          k =-0.0769 0.3846-0.0769 (  2068 PWs)   bands (ev):

     1.4698   3.7241   3.9926   4.0012   4.1639   4.3023   4.6641   5.1569
     5.1698   5.5310   5.7331  12.3583  13.2960  14.0241  16.1058

          k =-0.1538 0.4615-0.1538 (  2074 PWs)   bands (ev):

     1.9403   3.7161   3.9945   4.0043   4.2047   4.3420   4.6062   5.1901
     5.2242   5.5002   5.7424  10.6062  12.8852  13.4017  16.1833

          k =-0.2308 0.5385-0.2308 (  2080 PWs)   bands (ev):

     2.5039   3.7329   4.0000   4.0036   4.2176   4.3260   4.6423   5.2554
     5.2682   5.5002   5.7409   8.9811  12.6684  12.7457  16.0449

          k =-0.3077 0.6154-0.3077 (  2087 PWs)   bands (ev):

     3.0262   3.7605   3.9868   3.9996   4.2317   4.2734   4.7841   5.2220
     5.4759   5.5516   5.7349   7.5597  12.1728  12.6649  16.0201

          k = 0.6154-0.3077 0.6154 (  2077 PWs)   bands (ev):

     3.2847   3.7910   3.9414   4.0134   4.2027   4.2720   4.9599   5.1400
     5.6210   5.6320   6.0191   6.5043  11.7422  12.8795  16.1532

          k = 0.5385-0.2308 0.5385 (  2076 PWs)   bands (ev):

     3.1353   3.8526   3.8810   4.0590   4.1214   4.3267   5.0263   5.0405
     5.5560   5.6354   5.6780   7.1855  11.4893  13.2996  16.4472

          k = 0.4615-0.1538 0.4615 (  2075 PWs)   bands (ev):

     2.6740   3.8273   3.9129   4.0439   4.1124   4.3671   4.9192   4.9539
     5.4015   5.5124   5.7127   8.5188  11.4317  13.8947  16.9025

          k = 0.3846-0.0769 0.3846 (  2080 PWs)   bands (ev):

     2.1089   3.7947   3.9518   3.9877   4.1478   4.3621   4.8415   4.9137
     5.3260   5.5071   5.7247  10.0870  11.5727  14.6103  17.5178

          k = 0.3077 0.0000 0.3077 (  2079 PWs)   bands (ev):

     1.6029   3.7915   3.9429   3.9849   4.1534   4.3057   4.8468   4.9289
     5.2267   5.5544   5.7165  11.7010  12.0192  15.3251  18.3451

          k = 0.0000 0.4615 0.0000 (  2069 PWs)   bands (ev):

     1.7335   3.6747   4.0083   4.0083   4.2265   4.3586   4.5184   5.2356
     5.2356   5.4673   5.7581  12.6747  12.6747  12.8161  15.3510

          k =-0.0769 0.5385-0.0769 (  2069 PWs)   bands (ev):

     2.1497   3.6545   4.0072   4.0112   4.2912   4.3946   4.4275   5.2951
     5.2991   5.4214   5.7815  11.2309  12.2142  12.3588  15.4367

          k =-0.1538 0.6154-0.1538 (  2083 PWs)   bands (ev):

     2.6714   3.6618   3.9862   4.0089   4.3350   4.3427   4.4843   5.2701
     5.3838   5.4658   5.8066   9.6752  11.6474  11.9537  15.4348

          k =-0.2308 0.6923-0.2308 (  2083 PWs)   bands (ev):

     3.1845   3.6827   3.9581   3.9918   4.3107   4.3686   4.5980   5.1844
     5.5567   5.5574   5.8561   8.2325  10.9658  11.9192  15.4220

          k = 0.6923-0.2308 0.6923 (  2083 PWs)   bands (ev):

     3.4915   3.7061   3.9524   3.9580   4.2558   4.4094   4.7832   5.0777
     5.6394   5.6961   6.2134   6.9920  10.4186  12.1190  15.5392

          k = 0.6154-0.1538 0.6154 (  2080 PWs)   bands (ev):

     3.4383   3.7831   3.8979   3.9996   4.1733   4.4557   4.9422   4.9668
     5.6682   5.6973   6.0533   7.1113  10.0506  12.5395  15.8023

          k = 0.5385-0.0769 0.5385 (  2078 PWs)   bands (ev):

     3.1084   3.8441   3.8521   4.0599   4.0910   4.4799   4.8839   4.9863
     5.5270   5.6019   5.7292   8.3522   9.8929  13.1459  16.2173

          k = 0.4615 0.0000 0.4615 (  2087 PWs)   bands (ev):

     2.6116   3.8061   3.9101   4.0252   4.1155   4.4445   4.8695   4.9014
     5.4488   5.4702   5.7372   9.6702  10.1023  13.8783  16.7895

          k = 0.0000 0.6154 0.0000 (  2072 PWs)   bands (ev):

     2.5088   3.6241   4.0162   4.0162   4.2539   4.3860   4.4566   5.3282
     5.3880   5.3880   5.8253  11.0014  11.6919  11.6919  14.9121

          k =-0.0769 0.6923-0.0769 (  2083 PWs)   bands (ev):

     2.9756   3.6250   3.9873   4.0152   4.1868   4.4616   4.4881   5.2359
     5.4746   5.4838   5.8881   9.9467  10.9867  11.3684  14.9943

          k =-0.1538 0.7692-0.1538 (  2076 PWs)   bands (ev):

     3.4424   3.6457   3.9174   4.0029   4.2353   4.5162   4.5178   5.1289
     5.5797   5.6032   6.0101   8.8050  10.0746  11.2788  15.0089

          k = 0.7692-0.1538 0.7692 (  2094 PWs)   bands (ev):

     3.6530   3.7363   3.8941   3.9738   4.2684   4.5656   4.6268   5.0097
     5.6556   5.7294   6.3668   7.6925   9.3281  11.4374  15.1003

          k = 0.6923-0.0769 0.6923 (  2095 PWs)   bands (ev):

     3.6156   3.8264   3.9261   3.9302   4.2138   4.6021   4.8049   4.8953
     5.7043   5.7576   6.5857   7.2797   8.8214  11.8307  15.3249

          k = 0.6154 0.0000 0.6154 (  2085 PWs)   bands (ev):

     3.4585   3.8234   3.8825   3.9917   4.1454   4.5793   4.8449   4.9413
     5.7048   5.7274   5.9135   8.1785   8.7352  12.4205  15.6940

          k = 0.0000 0.7692 0.0000 (  2080 PWs)   bands (ev):

     3.3780   3.6235   4.0112   4.0187   4.0187   4.5063   4.5714   5.1597
     5.5451   5.5451   6.0097   9.2192  10.9743  10.9743  14.6648

          k =-0.0769 0.8462-0.0769 (  2084 PWs)   bands (ev):

     3.6492   3.7677   3.8780   4.0140   4.1011   4.4952   4.6564   5.0582
     5.6147   5.6269   6.2217   8.4027  10.2939  10.8169  14.7469

          k = 0.8462-0.0769 0.8462 (  2088 PWs)   bands (ev):

     3.6701   3.8117   3.9515   3.9966   4.2545   4.5012   4.7212   4.9385
     5.6678   5.7204   6.6351   7.7091   9.2564  10.9190  14.8146

          k = 0.7692 0.0000 0.7692 (  2089 PWs)   bands (ev):

     3.6507   3.8490   3.9490   3.9666   4.2537   4.6453   4.7294   4.8521
     5.6963   5.7753   7.0580   7.3286   8.4242  11.2702  15.0001

          k = 0.0000 0.9231 0.0000 (  2080 PWs)   bands (ev):

     3.6853   3.8145   4.0188   4.0188   4.1022   4.4403   4.7703   4.9704
     5.6497   5.6497   6.5476   7.6628  10.5875  10.5875  14.5956

          k = 0.9231 0.0000 0.9231 (  2076 PWs)   bands (ev):

     3.7198   3.7547   4.0130   4.0199   4.3115   4.3633   4.8519   4.8682
     5.6686   5.6853   7.0570   7.0634  10.0764  10.6229  14.6678

          k =-0.1538 0.3077 0.0000 (  2078 PWs)   bands (ev):

     1.2634   3.7762   3.9617   3.9937   4.1325   4.2525   4.7942   5.0562
     5.1479   5.5780   5.7114  12.8817  13.1330  15.2128  16.9287

          k =-0.2308 0.3846-0.0769 (  2074 PWs)   bands (ev):

     1.6886   3.7598   3.9680   3.9942   4.1661   4.3141   4.7300   5.0510
     5.2223   5.5399   5.7236  11.1667  12.5808  14.6357  17.1779

          k =-0.3077 0.4615-0.1538 (  2074 PWs)   bands (ev):

     2.2332   3.7718   3.9657   4.0141   4.1663   4.3347   4.7288   5.0789
     5.2958   5.5138   5.7222   9.4737  12.2872  13.9553  17.0085

          k =-0.3846 0.5385-0.2308 (  2084 PWs)   bands (ev):

     2.7972   3.8034   3.9430   4.0520   4.1472   4.3048   4.8275   5.1502
     5.3775   5.5313   5.7035   7.9718  12.1626  13.3670  16.8462

          k = 0.5385-0.3846 0.6923 (  2077 PWs)   bands (ev):

     3.1816   3.8279   3.9161   4.0578   4.1653   4.2515   4.9813   5.1601
     5.5805   5.6291   5.7519   6.7616  12.1651  12.9907  16.7725

          k =-0.1538 0.4615 0.0000 (  2067 PWs)   bands (ev):

     1.8387   3.6955   3.9956   4.0068   4.2135   4.3620   4.5600   5.1755
     5.2659   5.4799   5.7525  11.6961  12.0501  13.5638  16.2007

          k =-0.2308 0.5385-0.0769 (  2082 PWs)   bands (ev):

     2.3375   3.6953   3.9718   4.0241   4.2429   4.3964   4.5288   5.1973
     5.3536   5.4527   5.7676  10.1672  11.5615  12.9193  16.3412

          k =-0.3077 0.6154-0.1538 (  2083 PWs)   bands (ev):

     2.8845   3.7154   3.9354   4.0394   4.2549   4.3692   4.6178   5.2016
     5.4356   5.5188   5.7779   8.6356  11.3243  12.3282  16.2724

          k = 0.6154-0.3077 0.7692 (  2073 PWs)   bands (ev):

     3.3112   3.7352   3.8998   4.0410   4.2626   4.3354   4.7843   5.1322
     5.5978   5.6580   5.8924   7.3011  11.1025  12.0582  16.3186

          k = 0.5385-0.2308 0.6923 (  2075 PWs)   bands (ev):

     3.4218   3.7630   3.8729   4.0479   4.2166   4.3596   4.9143   5.0531
     5.6490   5.6765   6.2451   6.6250  10.8371  12.2142  16.5037

          k = 0.4615-0.1538 0.6154 (  2084 PWs)   bands (ev):

     3.1687   3.7954   3.8682   4.0737   4.1509   4.4070   4.8304   5.0884
     5.5547   5.6212   5.7471   7.7636  10.6677  12.6647  16.8218

          k = 0.3846-0.0769 0.5385 (  2086 PWs)   bands (ev):

     2.6822   3.7699   3.9145   4.0492   4.1498   4.4275   4.7157   5.0702
     5.4279   5.4904   5.7461   9.1753  10.6791  13.3038  17.2549

          k = 0.3077 0.0000 0.4615 (  2079 PWs)   bands (ev):

     2.1441   3.7516   3.9607   4.0047   4.1692   4.3887   4.6850   5.0409
     5.3498   5.4781   5.7418  10.6313  11.0256  14.0359  17.7530

          k =-0.1538 0.6154 0.0000 (  2069 PWs)   bands (ev):

     2.5934   3.6437   3.9793   4.0256   4.3270   4.3550   4.4562   5.2762
     5.4126   5.4189   5.8175  10.5276  11.1603  11.8983  15.6807

          k =-0.2308 0.6923-0.0769 (  2086 PWs)   bands (ev):

     3.0971   3.6577   3.9234   4.0332   4.3223   4.3957   4.5071   5.1939
     5.5031   5.5354   5.8725   9.2861  10.5748  11.3760  15.8000

          k = 0.6923-0.2308 0.8462 (  2083 PWs)   bands (ev):

     3.5075   3.6764   3.8790   4.0268   4.3183   4.4457   4.6160   5.0853
     5.6213   5.6783   6.0523   7.9938  10.0523  11.2347  15.8469

          k = 0.6154-0.1538 0.7692 (  2089 PWs)   bands (ev):

     3.6280   3.7320   3.8632   4.0209   4.2635   4.4977   4.7843   4.9706
     5.6857   5.7362   6.5989   6.9499   9.5848  11.4514  16.0288

          k = 0.5385-0.0769 0.6923 (  2085 PWs)   bands (ev):

     3.4906   3.7961   3.8383   4.0445   4.1882   4.5356   4.8007   4.9817
     5.6901   5.7184   6.0235   7.7374   9.2894  11.9164  16.3532

          k = 0.4615 0.0000 0.6154 (  2081 PWs)   bands (ev):

     3.1508   3.7913   3.8552   4.0759   4.1359   4.5161   4.7303   5.0599
     5.5380   5.6038   5.7648   8.8630   9.3764  12.5606  16.8073

          k =-0.1538 0.7692 0.0000 (  2083 PWs)   bands (ev):

     3.4140   3.6365   3.9142   4.0293   4.1701   4.4939   4.5505   5.1408
     5.5640   5.5732   6.0082   9.1477  10.5139  10.7631  15.3701

          k = 0.7692-0.1538 0.9231 (  2091 PWs)   bands (ev):

     3.6611   3.7386   3.8555   4.0273   4.2642   4.5009   4.6169   5.0241
     5.6488   5.6823   6.2683   8.3164   9.5889  10.6120  15.4989

          k = 0.6923-0.0769 0.8462 (  2094 PWs)   bands (ev):

     3.6603   3.7981   3.9143   4.0106   4.2930   4.6105   4.6764   4.8998
     5.6986   5.7644   6.7861   7.5383   8.7487  10.8266  15.6480

          k = 0.6154 0.0000 0.7692 (  2091 PWs)   bands (ev):

     3.6293   3.8226   3.8757   4.0121   4.2387   4.6537   4.7484   4.8656
     5.7192   5.7702   6.6000   7.6902   8.3983  11.2802  15.9351

          k = 0.8462-0.0769 1.0000 (  2089 PWs)   bands (ev):

     3.6851   3.7872   3.9699   4.0267   4.2208   4.4492   4.7468   4.9506
     5.6742   5.6744   6.5867   7.7052  10.1819  10.2412  15.2559

          k = 0.7692 0.0000 0.9231 (  2101 PWs)   bands (ev):

     3.6890   3.7604   4.0053   4.0113   4.3307   4.4736   4.7984   4.8427
     5.6973   5.7358   7.1481   7.1684   9.2453  10.3981  15.4023

          k =-0.3077 0.6154 0.0000 (  2078 PWs)   bands (ev):

     2.8279   3.7013   3.9146   4.0504   4.2596   4.4739   4.5039   5.1783
     5.4441   5.4992   5.7955   9.6876  10.2261  12.2311  17.3215

          k = 0.6154-0.3077 0.9231 (  2082 PWs)   bands (ev):

     3.2935   3.7219   3.8600   4.0646   4.2720   4.4660   4.6202   5.1081
     5.5837   5.6269   5.8581   8.4478   9.9395  11.5799  17.2137

          k = 0.5385-0.2308 0.8462 (  2091 PWs)   bands (ev):

     3.5747   3.7217   3.8367   4.0613   4.2954   4.4391   4.7753   5.0024
     5.6764   5.7227   6.2822   7.2408   9.9490  11.1631  17.1723

          k = 0.6923-0.2308 1.0000 (  2087 PWs)   bands (ev):

     3.4999   3.6757   3.8527   4.0532   4.3886   4.4125   4.5525   5.0828
     5.6280   5.6413   6.0226   8.8005   9.6666  10.6285  16.9505

          k = 0.6154-0.1538 0.9231 (  2084 PWs)   bands (ev):

     3.6877   3.7032   3.8599   4.0524   4.3880   4.5039   4.6383   4.9550
     5.7043   5.7403   6.4329   7.9014   9.2401  10.2410  17.0481

          k = 0.5385-0.0769 0.8462 (  2096 PWs)   bands (ev):

     3.6713   3.7399   3.8834   4.0501   4.3447   4.5666   4.7230   4.8756
     5.7286   5.7669   6.7581   7.4336   8.9151  10.3895  17.2527

          k = 0.4615 0.0000 0.7692 (  2085 PWs)   bands (ev):

     3.5853   3.7403   3.8343   4.0637   4.2995   4.5905   4.6192   4.9848
     5.7100   5.7172   6.1659   8.2253   8.9024  10.8852  17.5146

          k = 0.6923-0.0769 1.0000 (  2088 PWs)   bands (ev):

     3.6894   3.7344   3.9512   4.0394   4.4000   4.4706   4.6948   4.8951
     5.7263   5.7281   6.7262   7.7790   9.4282   9.6684  16.7764

          k = 0.6154 0.0000 0.9231 (  2106 PWs)   bands (ev):

     3.6795   3.7341   3.9797   4.0282   4.3964   4.5793   4.7271   4.7960
     5.7407   5.7751   7.1873   7.4110   8.7015   9.8367  16.9767

          k = 0.5385-0.0769 1.0000 (  2102 PWs)   bands (ev):

     3.6949   3.7055   3.9585   4.0410   4.4630   4.5524   4.6753   4.8193
     5.7570   5.7713   6.9824   7.6922   8.8200   9.4829  18.2439

     the Fermi energy is     6.7778 ev

!    total energy              =    -426.03838303 Ry
     Harris-Foulkes estimate   =    -426.03838305 Ry
     estimated scf accuracy    <       0.00000004 Ry

     total all-electron energy =     -6619.797919 Ry

     The total energy is the sum of the following terms:

     one-electron contribution =    -116.83061037 Ry
     hartree contribution      =      57.87326036 Ry
     xc contribution           =     -73.47137537 Ry
     ewald contribution        =    -127.80442421 Ry
     one-center paw contrib.   =    -165.80513334 Ry
     smearing contrib. (-TS)   =      -0.00010010 Ry

     convergence has been achieved in  17 iterations

     Writing output data file Cu.save

     init_run     :      3.53s CPU      3.65s WALL (       1 calls)
     electrons    :    118.51s CPU    122.09s WALL (       1 calls)

     Called by init_run:
     wfcinit      :      2.45s CPU      2.53s WALL (       1 calls)
     potinit      :      0.37s CPU      0.39s WALL (       1 calls)

     Called by electrons:
     c_bands      :     90.51s CPU     93.11s WALL (      18 calls)
     sum_band     :     18.23s CPU     18.79s WALL (      18 calls)
     v_of_rho     :      0.40s CPU      0.41s WALL (      18 calls)
     newd         :      0.90s CPU      0.93s WALL (      18 calls)
     mix_rho      :      2.58s CPU      2.63s WALL (      18 calls)

     Called by c_bands:
     init_us_2    :      2.44s CPU      2.49s WALL (    3108 calls)
     cegterg      :     84.13s CPU     86.37s WALL (    1512 calls)

     Called by *egterg:
     h_psi        :     71.77s CPU     73.67s WALL (    4166 calls)
     s_psi        :      2.24s CPU      2.18s WALL (    4166 calls)
     g_psi        :      0.60s CPU      0.62s WALL (    2570 calls)
     cdiaghg      :      4.32s CPU      4.39s WALL (    3998 calls)

     Called by h_psi:
     add_vuspsi   :      2.14s CPU      2.17s WALL (    4166 calls)

     General routines
     calbec       :      3.64s CPU      3.61s WALL (    5678 calls)
     fft          :      0.20s CPU      0.22s WALL (     236 calls)
     fftw         :     75.10s CPU     75.39s WALL (  130334 calls)
     davcio       :      0.39s CPU      0.42s WALL (    4620 calls)

     Parallel routines
     fft_scatter  :     14.46s CPU     14.38s WALL (  130570 calls)

     PAW routines
     PAW_pot      :      6.15s CPU      6.47s WALL (      18 calls)
     PAW_ddot     :      2.51s CPU      2.54s WALL (     482 calls)
     PAW_symme    :      0.04s CPU      0.04s WALL (      36 calls)

     PWSCF        :  2m 3.27s CPU     2m 7.02s WALL


   This run was terminated on:  20:28:28  11Jul2015            

=------------------------------------------------------------------------------=
   JOB DONE.
=------------------------------------------------------------------------------=
