
     Program PWSCF v.5.0.2 (svn rev. 9656) starts on 11Jul2015 at 20:17:37 

     This program is part of the open-source Quantum ESPRESSO suite
     for quantum simulation of materials; please cite
         "P. Giannozzi et al., J. Phys.:Condens. Matter 21 395502 (2009);
          URL http://www.quantum-espresso.org", 
     in publications or presentations arising from this work. More details at
     http://www.quantum-espresso.org/quote.php

     Parallel version (MPI), running on     4 processors
     R & G space division:  proc/nbgrp/npool/nimage =       4

     Current dimensions of program PWSCF are:
     Max number of different atomic species (ntypx) = 10
     Max number of k-points (npk) =  40000
     Max angular momentum in pseudopotentials (lmaxx) =  3
     Waiting for input...
     Reading input from standard input
               file Cu.pbe.UPF: wavefunction(s)  4S 3D renormalized

     Subspace diagonalization in iterative solution of the eigenvalue problem:
     a serial algorithm will be used


     Parallelization info
     --------------------
     sticks:   dense  smooth     PW     G-vecs:    dense   smooth      PW
     Min         180     180     52                 3156     3156     526
     Max         181     181     53                 3157     3157     529
     Sum         721     721    211                12627    12627    2109



     bravais-lattice index     =            2
     lattice parameter (alat)  =      10.2000  a.u.
     unit-cell volume          =     265.3020 (a.u.)^3
     number of atoms/cell      =            2
     number of atomic types    =            1
     number of electrons       =        22.00
     number of Kohn-Sham states=           15
     kinetic-energy cutoff     =      50.0000  Ry
     charge density cutoff     =     200.0000  Ry
     convergence threshold     =      1.0E-07
     mixing beta               =       0.7000
     number of iterations used =            8  plain     mixing
     Exchange-correlation      =  SLA  PW   PBX  PBC ( 1 4 3 4 0)
     EXX-fraction              =        0.00

     celldm(1)=  10.200000  celldm(2)=   0.000000  celldm(3)=   0.000000
     celldm(4)=   0.000000  celldm(5)=   0.000000  celldm(6)=   0.000000

     crystal axes: (cart. coord. in units of alat)
               a(1) = (  -0.500000   0.000000   0.500000 )  
               a(2) = (   0.000000   0.500000   0.500000 )  
               a(3) = (  -0.500000   0.500000   0.000000 )  

     reciprocal axes: (cart. coord. in units 2 pi/alat)
               b(1) = ( -1.000000 -1.000000  1.000000 )  
               b(2) = (  1.000000  1.000000  1.000000 )  
               b(3) = ( -1.000000  1.000000 -1.000000 )  


     PseudoPot. # 1 for Cu read from file:
     ./Cu.pbe.UPF
     MD5 check sum: 0c51aa2b3b25e0d1c3270f17c0a46a12
     Pseudo is Projector augmented-wave + core cor, Zval = 11.0
     Generated using "atomic" code by A. Dal Corso  v.5.0.99 svn rev. 10869
     Shape of augmentation charge: BESSEL
     Using radial grid of 1199 points,  6 beta functions with: 
                l(1) =   0
                l(2) =   0
                l(3) =   1
                l(4) =   1
                l(5) =   2
                l(6) =   2
     Q(r) pseudized with 0 coefficients 


     atomic species   valence    mass     pseudopotential
        Cu            11.00    63.54600     Cu( 1.00)

     48 Sym. Ops., with inversion, found (24 have fractional translation)



   Cartesian axes

     site n.     atom                  positions (alat units)
         1           Cu  tau(   1) = (   0.0000000   0.0000000   0.0000000  )
         2           Cu  tau(   2) = (   0.2500000   0.2500000   0.2500000  )

     number of k points=    20  gaussian smearing, width (Ry)=  0.0030
                       cart. coord. in units 2pi/alat
        k(    1) = (   0.0000000   0.0000000   0.0000000), wk =   0.0058309
        k(    2) = (  -0.1428571   0.1428571  -0.1428571), wk =   0.0466472
        k(    3) = (  -0.2857143   0.2857143  -0.2857143), wk =   0.0466472
        k(    4) = (  -0.4285714   0.4285714  -0.4285714), wk =   0.0466472
        k(    5) = (   0.0000000   0.2857143   0.0000000), wk =   0.0349854
        k(    6) = (  -0.1428571   0.4285714  -0.1428571), wk =   0.1399417
        k(    7) = (  -0.2857143   0.5714286  -0.2857143), wk =   0.1399417
        k(    8) = (   0.5714286  -0.2857143   0.5714286), wk =   0.1399417
        k(    9) = (   0.4285714  -0.1428571   0.4285714), wk =   0.1399417
        k(   10) = (   0.2857143  -0.0000000   0.2857143), wk =   0.0699708
        k(   11) = (   0.0000000   0.5714286   0.0000000), wk =   0.0349854
        k(   12) = (  -0.1428571   0.7142857  -0.1428571), wk =   0.1399417
        k(   13) = (   0.7142857  -0.1428571   0.7142857), wk =   0.1399417
        k(   14) = (   0.5714286   0.0000000   0.5714286), wk =   0.0699708
        k(   15) = (   0.0000000   0.8571429   0.0000000), wk =   0.0349854
        k(   16) = (   0.8571429  -0.0000000   0.8571429), wk =   0.0699708
        k(   17) = (  -0.2857143   0.5714286   0.0000000), wk =   0.1399417
        k(   18) = (   0.5714286  -0.2857143   0.8571429), wk =   0.2798834
        k(   19) = (   0.7142857  -0.1428571   1.0000000), wk =   0.1399417
        k(   20) = (   0.5714286   0.0000000   0.8571429), wk =   0.1399417

     Dense  grid:    12627 G-vectors     FFT dimensions: (  36,  36,  36)

     Largest allocated arrays     est. size (Mb)     dimensions
        Kohn-Sham Wavefunctions         0.09 Mb     (    409,   15)
        NL pseudopotentials             0.22 Mb     (    409,   36)
        Each V/rho on FFT grid          0.18 Mb     (  11664)
        Each G-vector array             0.02 Mb     (   3157)
        G-vector shells                 0.00 Mb     (    176)
     Largest temporary arrays     est. size (Mb)     dimensions
        Auxiliary wavefunctions         0.37 Mb     (    409,   60)
        Each subspace H/S matrix        0.05 Mb     (  60,  60)
        Each <psi_i|beta_j> matrix      0.01 Mb     (     36,   15)
        Arrays for rho mixing           1.42 Mb     (  11664,   8)

     Check: negative/imaginary core charge=   -0.000143    0.000000

     Initial potential from superposition of free atoms

     starting charge   21.99954, renormalised to   22.00000
     Starting wfc are   18 randomized atomic wfcs
     Checking if some PAW data can be deallocated... 

     total cpu time spent up to now is        2.3 secs

     per-process dynamical memory:    11.5 Mb

     Self-consistent Calculation

     iteration #  1     ecut=    50.00 Ry     beta=0.70
     Davidson diagonalization with overlap
     ethr =  1.00E-02,  avg # of iterations =  3.5

     Threshold (ethr) on eigenvalues was too large:
     Diagonalizing with lowered threshold

     Davidson diagonalization with overlap
     ethr =  1.67E-05,  avg # of iterations =  4.2

     total cpu time spent up to now is        6.0 secs

     total energy              =    -426.05726781 Ry
     Harris-Foulkes estimate   =    -426.05701003 Ry
     estimated scf accuracy    <       0.00493718 Ry

     iteration #  2     ecut=    50.00 Ry     beta=0.70
     Davidson diagonalization with overlap
     ethr =  2.24E-05,  avg # of iterations =  1.0

     total cpu time spent up to now is        7.4 secs

     total energy              =    -426.05685096 Ry
     Harris-Foulkes estimate   =    -426.05760601 Ry
     estimated scf accuracy    <       0.00124810 Ry

     iteration #  3     ecut=    50.00 Ry     beta=0.70
     Davidson diagonalization with overlap
     ethr =  5.67E-06,  avg # of iterations =  2.9

     total cpu time spent up to now is        9.3 secs

     total energy              =    -426.05680121 Ry
     Harris-Foulkes estimate   =    -426.05820778 Ry
     estimated scf accuracy    <       0.00438735 Ry

     iteration #  4     ecut=    50.00 Ry     beta=0.70
     Davidson diagonalization with overlap
     ethr =  5.67E-06,  avg # of iterations =  2.3

     total cpu time spent up to now is       11.1 secs

     total energy              =    -426.05746030 Ry
     Harris-Foulkes estimate   =    -426.05746175 Ry
     estimated scf accuracy    <       0.00000559 Ry

     iteration #  5     ecut=    50.00 Ry     beta=0.70
     Davidson diagonalization with overlap
     ethr =  2.54E-08,  avg # of iterations =  3.0

     total cpu time spent up to now is       12.9 secs

     End of self-consistent calculation

          k = 0.0000 0.0000 0.0000 (  1591 PWs)   bands (ev):

     0.7473   4.0388   4.0388   4.0388   4.0598   4.0598   5.0949   5.0949
     5.0949   5.7190   5.7190  16.4376  16.4376  16.4376  17.3906

          k =-0.1429 0.1429-0.1429 (  1570 PWs)   bands (ev):

     1.0570   3.9451   3.9451   4.0461   4.1990   4.1990   5.0352   5.0890
     5.0890   5.7193   5.7193  13.2717  15.4232  15.4232  17.8451

          k =-0.2857 0.2857-0.2857 (  1579 PWs)   bands (ev):

     1.9222   3.9377   3.9377   4.0794   4.2672   4.2672   4.9390   5.1405
     5.1405   5.7013   5.7013   9.8675  14.4273  14.4273  17.6426

          k =-0.4286 0.4286-0.4286 (  1580 PWs)   bands (ev):

     2.9375   4.0144   4.0144   4.0964   4.1942   4.1942   5.2226   5.2675
     5.2675   5.6509   5.6509   7.1741  13.8880  13.8880  17.7353

          k = 0.0000 0.2857 0.0000 (  1575 PWs)   bands (ev):

     1.1618   3.8363   4.0547   4.0547   4.1496   4.2829   4.8629   5.1713
     5.1713   5.6452   5.7737  14.1215  14.1215  14.7019  16.2077

          k =-0.1429 0.4286-0.1429 (  1585 PWs)   bands (ev):

     1.8511   3.7879   4.0489   4.0646   4.2492   4.3869   4.7056   5.2269
     5.2620   5.5805   5.7989  11.0716  13.1511  13.7891  16.4664

          k =-0.2857 0.5714-0.2857 (  1593 PWs)   bands (ev):

     2.8770   3.8246   4.0565   4.0663   4.2682   4.3499   4.8096   5.3066
     5.4171   5.5906   5.7877   8.1226  12.6340  12.8102  16.2610

          k = 0.5714-0.2857 0.5714 (  1575 PWs)   bands (ev):

     3.2961   3.8927   3.9766   4.0982   4.2203   4.3397   5.0950   5.1688
     5.6644   5.7077   5.9406   6.6881  11.8803  13.1991  16.5097

          k = 0.4286-0.1429 0.4286 (  1574 PWs)   bands (ev):

     2.5232   3.8769   3.9941   4.0819   4.1909   4.4176   4.9481   5.0084
     5.4264   5.5705   5.7780   9.0634  11.7573  14.2367  17.3175

          k = 0.2857-0.0000 0.2857 (  1572 PWs)   bands (ev):

     1.5568   3.8574   3.9976   4.0493   4.2102   4.3449   4.9238   5.0010
     5.2616   5.6322   5.7745  12.0939  12.4113  15.5435  18.2708

          k = 0.0000 0.5714 0.0000 (  1596 PWs)   bands (ev):

     2.3469   3.6971   4.0754   4.0754   4.3932   4.3975   4.4920   5.4054
     5.4054   5.4333   5.8649  11.5783  12.0161  12.0161  15.1408

          k =-0.1429 0.7143-0.1429 (  1590 PWs)   bands (ev):

     3.2328   3.7063   4.0123   4.0684   4.3168   4.5163   4.5623   5.2547
     5.5888   5.5941   5.9733   9.3110  10.6692  11.5152  15.2436

          k = 0.7143-0.1429 0.7143 (  1587 PWs)   bands (ev):

     3.6947   3.8124   3.9841   4.0092   4.3078   4.6002   4.8125   5.0398
     5.7405   5.8065   6.6403   7.1636   9.4541  11.8301  15.4346

          k = 0.5714 0.0000 0.5714 (  1586 PWs)   bands (ev):

     3.3427   3.8965   3.9183   4.0941   4.1722   4.6009   4.9094   5.0478
     5.7125   5.7186   5.7965   8.6093   9.1503  12.8766  16.1069

          k = 0.0000 0.8571 0.0000 (  1600 PWs)   bands (ev):

     3.7149   3.8846   3.9700   4.0797   4.0797   4.5507   4.7449   5.1149
     5.6787   5.6787   6.3223   8.3569  10.7780  10.7780  14.7372

          k = 0.8571-0.0000 0.8571 (  1594 PWs)   bands (ev):

     3.7507   3.8496   4.0597   4.0651   4.3564   4.5273   4.8706   4.9232
     5.7416   5.7907   7.1840   7.1929   9.3902  10.8963  14.9077

          k =-0.2857 0.5714 0.0000 (  1581 PWs)   bands (ev):

     2.6508   3.7661   3.9998   4.1009   4.2995   4.5067   4.5888   5.2369
     5.4938   5.5053   5.8416  10.1397  10.6525  12.7668  17.3051

          k = 0.5714-0.2857 0.8571 (  1583 PWs)   bands (ev):

     3.4832   3.7987   3.9114   4.1237   4.3258   4.4866   4.8043   5.1325
     5.6942   5.7561   6.0312   7.7081  10.2987  11.6544  17.1982

          k = 0.7143-0.1429 1.0000 (  1588 PWs)   bands (ev):

     3.7385   3.8008   3.9187   4.1054   4.4107   4.5351   4.6847   5.0513
     5.7529   5.7554   6.4139   8.3222   9.6839  10.1137  16.6929

          k = 0.5714 0.0000 0.8571 (  1594 PWs)   bands (ev):

     3.7304   3.8173   3.9823   4.0980   4.4050   4.7188   4.7376   4.8958
     5.7990   5.8428   6.9503   7.6837   8.5972  10.3938  17.0877

     the Fermi energy is     6.9503 ev

!    total energy              =    -426.05746337 Ry
     Harris-Foulkes estimate   =    -426.05746333 Ry
     estimated scf accuracy    <       0.00000007 Ry

     total all-electron energy =     -6619.817000 Ry

     The total energy is the sum of the following terms:

     one-electron contribution =    -116.91356807 Ry
     hartree contribution      =      57.95908329 Ry
     xc contribution           =     -73.50449125 Ry
     ewald contribution        =    -127.80442424 Ry
     one-center paw contrib.   =    -165.79394466 Ry
     smearing contrib. (-TS)   =      -0.00011843 Ry

     convergence has been achieved in   5 iterations

     Writing output data file Cu.save

     init_run     :      1.39s CPU      1.46s WALL (       1 calls)
     electrons    :     10.30s CPU     10.68s WALL (       1 calls)

     Called by init_run:
     wfcinit      :      0.47s CPU      0.48s WALL (       1 calls)
     potinit      :      0.34s CPU      0.36s WALL (       1 calls)

     Called by electrons:
     c_bands      :      6.98s CPU      7.23s WALL (       6 calls)
     sum_band     :      1.39s CPU      1.41s WALL (       6 calls)
     v_of_rho     :      0.12s CPU      0.13s WALL (       6 calls)
     newd         :      0.20s CPU      0.20s WALL (       6 calls)
     mix_rho      :      0.11s CPU      0.12s WALL (       6 calls)

     Called by c_bands:
     init_us_2    :      0.14s CPU      0.14s WALL (     260 calls)
     cegterg      :      6.65s CPU      6.88s WALL (     120 calls)

     Called by *egterg:
     h_psi        :      5.85s CPU      6.05s WALL (     479 calls)
     s_psi        :      0.16s CPU      0.15s WALL (     479 calls)
     g_psi        :      0.04s CPU      0.04s WALL (     339 calls)
     cdiaghg      :      0.46s CPU      0.47s WALL (     439 calls)

     Called by h_psi:
     add_vuspsi   :      0.15s CPU      0.16s WALL (     479 calls)

     General routines
     calbec       :      0.26s CPU      0.25s WALL (     599 calls)
     fft          :      0.07s CPU      0.07s WALL (      80 calls)
     fftw         :      6.02s CPU      6.02s WALL (   12472 calls)
     davcio       :      0.02s CPU      0.03s WALL (     380 calls)

     Parallel routines
     fft_scatter  :      1.11s CPU      1.22s WALL (   12552 calls)

     PAW routines
     PAW_pot      :      1.83s CPU      1.94s WALL (       6 calls)
     PAW_ddot     :      0.10s CPU      0.11s WALL (      22 calls)
     PAW_symme    :      0.01s CPU      0.01s WALL (      12 calls)

     PWSCF        :    12.65s CPU        13.15s WALL


   This run was terminated on:  20:17:50  11Jul2015            

=------------------------------------------------------------------------------=
   JOB DONE.
=------------------------------------------------------------------------------=
