
     Program PWSCF v.5.0.2 (svn rev. 9656) starts on 26Jul2015 at  1:31:22 

     This program is part of the open-source Quantum ESPRESSO suite
     for quantum simulation of materials; please cite
         "P. Giannozzi et al., J. Phys.:Condens. Matter 21 395502 (2009);
          URL http://www.quantum-espresso.org", 
     in publications or presentations arising from this work. More details at
     http://www.quantum-espresso.org/quote.php

     Parallel version (MPI), running on     4 processors
     R & G space division:  proc/nbgrp/npool/nimage =       4

     Current dimensions of program PWSCF are:
     Max number of different atomic species (ntypx) = 10
     Max number of k-points (npk) =  40000
     Max angular momentum in pseudopotentials (lmaxx) =  3
     Waiting for input...
     Reading input from standard input
               file C.pbe-rrkjus.UPF: wavefunction(s)  2S 2P renormalized

     Subspace diagonalization in iterative solution of the eigenvalue problem:
     a serial algorithm will be used


     Parallelization info
     --------------------
     sticks:   dense  smooth     PW     G-vecs:    dense   smooth      PW
     Min         210     105     30                58130    20619    3522
     Max         213     106     31                58135    20664    3579
     Sum         847     421    121               232529    82533   14157



     bravais-lattice index     =            0
     lattice parameter (alat)  =       4.6400  a.u.
     unit-cell volume          =    1038.1636 (a.u.)^3
     number of atoms/cell      =            2
     number of atomic types    =            1
     number of electrons       =         8.00
     number of Kohn-Sham states=            8
     kinetic-energy cutoff     =      70.0000  Ry
     charge density cutoff     =     560.0000  Ry
     convergence threshold     =      1.0E-08
     mixing beta               =       0.7000
     number of iterations used =            8  plain     mixing
     Exchange-correlation      =  SLA  PW   PBE  PBE ( 1 4 3 4 0)
     EXX-fraction              =        0.00

     celldm(1)=   4.640000  celldm(2)=   0.000000  celldm(3)=   0.000000
     celldm(4)=   0.000000  celldm(5)=   0.000000  celldm(6)=   0.000000

     crystal axes: (cart. coord. in units of alat)
               a(1) = (   1.000000   0.000000   0.000000 )  
               a(2) = (   0.500000   0.866025   0.000000 )  
               a(3) = (   0.000000   0.000000  12.000000 )  

     reciprocal axes: (cart. coord. in units 2 pi/alat)
               b(1) = (  1.000000 -0.577350  0.000000 )  
               b(2) = (  0.000000  1.154701  0.000000 )  
               b(3) = (  0.000000  0.000000  0.083333 )  


     PseudoPot. # 1 for C  read from file:
     ./C.pbe-rrkjus.UPF
     MD5 check sum: 00fb224312de0c5b6853bd333518df6f
     Pseudo is Ultrasoft, Zval =  4.0
     Generated by new atomic code, or converted to UPF format
     Using radial grid of  627 points,  4 beta functions with: 
                l(1) =   0
                l(2) =   0
                l(3) =   1
                l(4) =   1
     Q(r) pseudized with 0 coefficients 


     atomic species   valence    mass     pseudopotential
        C              4.00    12.00000     C ( 1.00)

     24 Sym. Ops., with inversion, found (12 have fractional translation)



   Cartesian axes

     site n.     atom                  positions (alat units)
         1           C   tau(   1) = (   0.0000000   0.0000000   0.0000000  )
         2           C   tau(   2) = (   1.0000000   0.5773503   0.0000000  )

     number of k points=    14  gaussian smearing, width (Ry)=  0.0010
                       cart. coord. in units 2pi/alat
        k(    1) = (   0.0000000   0.0000000   0.0000000), wk =   0.0200000
        k(    2) = (   0.0000000   0.1154701   0.0000000), wk =   0.1200000
        k(    3) = (   0.0000000   0.2309401   0.0000000), wk =   0.1200000
        k(    4) = (   0.0000000   0.3464102   0.0000000), wk =   0.1200000
        k(    5) = (   0.0000000   0.4618802   0.0000000), wk =   0.1200000
        k(    6) = (   0.0000000  -0.5773503   0.0000000), wk =   0.0600000
        k(    7) = (   0.1000000   0.1732051   0.0000000), wk =   0.1200000
        k(    8) = (   0.1000000   0.2886751   0.0000000), wk =   0.2400000
        k(    9) = (   0.1000000   0.4041452   0.0000000), wk =   0.2400000
        k(   10) = (   0.1000000  -0.6350853   0.0000000), wk =   0.2400000
        k(   11) = (   0.2000000   0.3464102   0.0000000), wk =   0.1200000
        k(   12) = (   0.2000000  -0.6928203   0.0000000), wk =   0.2400000
        k(   13) = (   0.2000000  -0.5773503   0.0000000), wk =   0.1200000
        k(   14) = (   0.3000000  -0.6350853   0.0000000), wk =   0.1200000

     Dense  grid:   232529 G-vectors     FFT dimensions: (  36,  36, 432)

     Smooth grid:    82533 G-vectors     FFT dimensions: (  25,  25, 300)

     Largest allocated arrays     est. size (Mb)     dimensions
        Kohn-Sham Wavefunctions         0.33 Mb     (   2698,    8)
        NL pseudopotentials             0.66 Mb     (   2698,   16)
        Each V/rho on FFT grid          2.14 Mb     ( 139968)
        Each G-vector array             0.44 Mb     (  58135)
        G-vector shells                 0.14 Mb     (  17866)
     Largest temporary arrays     est. size (Mb)     dimensions
        Auxiliary wavefunctions         1.32 Mb     (   2698,   32)
        Each subspace H/S matrix        0.02 Mb     (  32,  32)
        Each <psi_i|beta_j> matrix      0.00 Mb     (     16,    8)
        Arrays for rho mixing          17.09 Mb     ( 139968,   8)

     Initial potential from superposition of free atoms

     starting charge    7.99989, renormalised to    8.00000

     negative rho (up, down):  0.248E-04 0.000E+00
     Starting wfc are    8 randomized atomic wfcs

     total cpu time spent up to now is        4.3 secs

     per-process dynamical memory:    26.2 Mb

     Self-consistent Calculation

     iteration #  1     ecut=    70.00 Ry     beta=0.70
     Davidson diagonalization with overlap
     ethr =  1.00E-02,  avg # of iterations =  5.0

     negative rho (up, down):  0.177E-04 0.000E+00

     total cpu time spent up to now is       12.6 secs

     total energy              =     -22.75927545 Ry
     Harris-Foulkes estimate   =     -22.88618662 Ry
     estimated scf accuracy    <       0.21021190 Ry

     iteration #  2     ecut=    70.00 Ry     beta=0.70
     Davidson diagonalization with overlap
     ethr =  2.63E-03,  avg # of iterations =  4.7

     negative rho (up, down):  0.170E-04 0.000E+00

     total cpu time spent up to now is       19.6 secs

     total energy              =     -22.79101808 Ry
     Harris-Foulkes estimate   =     -22.79115416 Ry
     estimated scf accuracy    <       0.00251316 Ry

     iteration #  3     ecut=    70.00 Ry     beta=0.70
     Davidson diagonalization with overlap
     ethr =  3.14E-05,  avg # of iterations = 11.4

     negative rho (up, down):  0.188E-04 0.000E+00

     total cpu time spent up to now is       29.9 secs

     total energy              =     -22.79137028 Ry
     Harris-Foulkes estimate   =     -22.79133989 Ry
     estimated scf accuracy    <       0.00014016 Ry

     iteration #  4     ecut=    70.00 Ry     beta=0.70
     Davidson diagonalization with overlap
     ethr =  1.75E-06,  avg # of iterations =  4.0

     negative rho (up, down):  0.190E-04 0.000E+00

     total cpu time spent up to now is       36.7 secs

     total energy              =     -22.79137568 Ry
     Harris-Foulkes estimate   =     -22.79137489 Ry
     estimated scf accuracy    <       0.00000088 Ry

     iteration #  5     ecut=    70.00 Ry     beta=0.70
     Davidson diagonalization with overlap
     ethr =  1.10E-08,  avg # of iterations =  2.4

     negative rho (up, down):  0.189E-04 0.000E+00

     total cpu time spent up to now is       43.3 secs

     total energy              =     -22.79137599 Ry
     Harris-Foulkes estimate   =     -22.79137598 Ry
     estimated scf accuracy    <       0.00000002 Ry

     iteration #  6     ecut=    70.00 Ry     beta=0.70
     Davidson diagonalization with overlap
     ethr =  2.99E-10,  avg # of iterations =  2.0

     negative rho (up, down):  0.189E-04 0.000E+00

     total cpu time spent up to now is       49.2 secs

     End of self-consistent calculation

          k = 0.0000 0.0000 0.0000 ( 10325 PWs)   bands (ev):

   -22.5191 -10.6210  -5.9984  -5.9984   0.3083   1.0473   1.2143   1.5689

          k = 0.0000 0.1155 0.0000 ( 10241 PWs)   bands (ev):

   -22.2818 -10.3366  -6.9137  -6.4760   0.6316   1.3761   1.5467   1.8996

          k = 0.0000 0.2309 0.0000 ( 10233 PWs)   bands (ev):

   -21.5734  -9.4945  -9.0941  -7.5003   1.6011   2.3596   2.5439   2.8904

          k = 0.0000 0.3464 0.0000 ( 10259 PWs)   bands (ev):

   -20.4069 -11.7151  -8.4968  -8.1413   2.9501   3.2100   4.0281   4.2055

          k = 0.0000 0.4619 0.0000 ( 10274 PWs)   bands (ev):

   -18.8152 -14.3019  -9.1707  -6.4418   0.2613   4.6902   5.4848   6.2905

          k = 0.0000-0.5774 0.0000 ( 10316 PWs)   bands (ev):

   -17.2277 -16.2381  -9.4056  -5.3074  -1.2398   4.5897   8.2270   8.3794

          k = 0.1000 0.1732 0.0000 ( 10212 PWs)   bands (ev):

   -21.8089  -9.7729  -8.2609  -7.4306   1.2786   2.0326   2.2116   2.5606

          k = 0.1000 0.2887 0.0000 ( 10253 PWs)   bands (ev):

   -20.8715 -10.4244  -8.6824  -8.6709   2.5703   3.3336   3.5411   3.8705

          k = 0.1000 0.4041 0.0000 ( 10277 PWs)   bands (ev):

   -19.4906 -12.9431  -9.6044  -7.1124   1.4398   4.4935   5.3009   5.5346

          k = 0.1000-0.6351 0.0000 ( 10289 PWs)   bands (ev):

   -17.7411 -15.3381 -10.0836  -5.4545  -0.8515   5.6285   7.0505   7.8396

          k = 0.2000 0.3464 0.0000 ( 10278 PWs)   bands (ev):

   -19.7192 -11.8926 -10.4562  -7.3467   2.0208   4.1789   4.9537   5.2031

          k = 0.2000-0.6928 0.0000 ( 10284 PWs)   bands (ev):

   -18.1572 -13.8963 -11.5311  -5.6596  -0.1993   6.3995   7.0913   7.5291

          k = 0.2000-0.5774 0.0000 ( 10294 PWs)   bands (ev):

   -16.6209 -15.6701 -11.8348  -4.4404  -1.6169   8.0197   8.4487   9.0248

          k = 0.3000-0.6351 0.0000 ( 10294 PWs)   bands (ev):

   -16.5140 -14.8146 -13.1903  -3.9598  -1.9042   7.8409   8.7964  10.1870

     the Fermi energy is    -2.0710 ev

!    total energy              =     -22.79137599 Ry
     Harris-Foulkes estimate   =     -22.79137599 Ry
     estimated scf accuracy    <          4.7E-10 Ry

     The total energy is the sum of the following terms:

     one-electron contribution =    -354.44457291 Ry
     hartree contribution      =     178.23780913 Ry
     xc contribution           =      -7.03390588 Ry
     ewald contribution        =     160.44929368 Ry
     smearing contrib. (-TS)   =      -0.00000000 Ry

     convergence has been achieved in   6 iterations

     Writing output data file graphene.save

     init_run     :      4.03s CPU      4.21s WALL (       1 calls)
     electrons    :     42.80s CPU     44.96s WALL (       1 calls)

     Called by init_run:
     wfcinit      :      1.45s CPU      1.49s WALL (       1 calls)
     potinit      :      1.16s CPU      1.19s WALL (       1 calls)

     Called by electrons:
     c_bands      :     27.43s CPU     28.64s WALL (       6 calls)
     sum_band     :      8.55s CPU      8.93s WALL (       6 calls)
     v_of_rho     :      2.94s CPU      3.23s WALL (       7 calls)
     newd         :      3.69s CPU      3.90s WALL (       7 calls)
     mix_rho      :      0.45s CPU      0.46s WALL (       6 calls)

     Called by c_bands:
     init_us_2    :      0.42s CPU      0.52s WALL (     182 calls)
     cegterg      :     26.86s CPU     27.91s WALL (      84 calls)

     Called by *egterg:
     h_psi        :     24.72s CPU     25.66s WALL (     512 calls)
     s_psi        :      0.46s CPU      0.47s WALL (     512 calls)
     g_psi        :      0.11s CPU      0.12s WALL (     414 calls)
     cdiaghg      :      0.21s CPU      0.21s WALL (     498 calls)

     Called by h_psi:
     add_vuspsi   :      0.43s CPU      0.44s WALL (     512 calls)

     General routines
     calbec       :      0.80s CPU      0.82s WALL (     596 calls)
     fft          :      2.98s CPU      3.16s WALL (     107 calls)
     ffts         :      0.10s CPU      0.10s WALL (      13 calls)
     fftw         :     16.60s CPU     17.36s WALL (    5106 calls)
     interpolate  :      0.59s CPU      0.60s WALL (      13 calls)
     davcio       :      0.15s CPU      0.20s WALL (     266 calls)

     Parallel routines
     fft_scatter  :     11.85s CPU     12.59s WALL (    5226 calls)

     PWSCF        :    47.10s CPU        49.48s WALL


   This run was terminated on:   1:32:12  26Jul2015            

=------------------------------------------------------------------------------=
   JOB DONE.
=------------------------------------------------------------------------------=
