
     Program PWSCF v.5.0.2 (svn rev. 9656) starts on 11Jul2015 at 20:38:25 

     This program is part of the open-source Quantum ESPRESSO suite
     for quantum simulation of materials; please cite
         "P. Giannozzi et al., J. Phys.:Condens. Matter 21 395502 (2009);
          URL http://www.quantum-espresso.org", 
     in publications or presentations arising from this work. More details at
     http://www.quantum-espresso.org/quote.php

     Parallel version (MPI), running on     4 processors
     R & G space division:  proc/nbgrp/npool/nimage =       4

     Current dimensions of program PWSCF are:
     Max number of different atomic species (ntypx) = 10
     Max number of k-points (npk) =  40000
     Max angular momentum in pseudopotentials (lmaxx) =  3
     Waiting for input...
     Reading input from standard input
               file Cu.pbe.UPF: wavefunction(s)  4S 3D renormalized

     Subspace diagonalization in iterative solution of the eigenvalue problem:
     a serial algorithm will be used


     Parallelization info
     --------------------
     sticks:   dense  smooth     PW     G-vecs:    dense   smooth      PW
     Min         289     289     87                 6437     6437    1027
     Max         292     292     88                 6438     6438    1028
     Sum        1159    1159    349                25749    25749    4111



     bravais-lattice index     =            2
     lattice parameter (alat)  =      10.2000  a.u.
     unit-cell volume          =     265.3020 (a.u.)^3
     number of atoms/cell      =            2
     number of atomic types    =            1
     number of electrons       =        22.00
     number of Kohn-Sham states=           15
     kinetic-energy cutoff     =      80.0000  Ry
     charge density cutoff     =     320.0000  Ry
     convergence threshold     =      1.0E-07
     mixing beta               =       0.7000
     number of iterations used =            8  plain     mixing
     Exchange-correlation      =  SLA  PW   PBX  PBC ( 1 4 3 4 0)
     EXX-fraction              =        0.00

     celldm(1)=  10.200000  celldm(2)=   0.000000  celldm(3)=   0.000000
     celldm(4)=   0.000000  celldm(5)=   0.000000  celldm(6)=   0.000000

     crystal axes: (cart. coord. in units of alat)
               a(1) = (  -0.500000   0.000000   0.500000 )  
               a(2) = (   0.000000   0.500000   0.500000 )  
               a(3) = (  -0.500000   0.500000   0.000000 )  

     reciprocal axes: (cart. coord. in units 2 pi/alat)
               b(1) = ( -1.000000 -1.000000  1.000000 )  
               b(2) = (  1.000000  1.000000  1.000000 )  
               b(3) = ( -1.000000  1.000000 -1.000000 )  


     PseudoPot. # 1 for Cu read from file:
     ./Cu.pbe.UPF
     MD5 check sum: 0c51aa2b3b25e0d1c3270f17c0a46a12
     Pseudo is Projector augmented-wave + core cor, Zval = 11.0
     Generated using "atomic" code by A. Dal Corso  v.5.0.99 svn rev. 10869
     Shape of augmentation charge: BESSEL
     Using radial grid of 1199 points,  6 beta functions with: 
                l(1) =   0
                l(2) =   0
                l(3) =   1
                l(4) =   1
                l(5) =   2
                l(6) =   2
     Q(r) pseudized with 0 coefficients 


     atomic species   valence    mass     pseudopotential
        Cu            11.00    63.54600     Cu( 1.00)

     24 Sym. Ops. (no inversion) found
          (note: 24 additional sym.ops. were found but ignored
           their fractional translations are incommensurate with FFT grid)


   Cartesian axes

     site n.     atom                  positions (alat units)
         1           Cu  tau(   1) = (   0.0000000   0.0000000   0.0000000  )
         2           Cu  tau(   2) = (   0.2500000   0.2500000   0.2500000  )

     number of k points=    35  gaussian smearing, width (Ry)=  0.0030
                       cart. coord. in units 2pi/alat
        k(    1) = (   0.0000000   0.0000000   0.0000000), wk =   0.0027435
        k(    2) = (  -0.1111111   0.1111111  -0.1111111), wk =   0.0219479
        k(    3) = (  -0.2222222   0.2222222  -0.2222222), wk =   0.0219479
        k(    4) = (  -0.3333333   0.3333333  -0.3333333), wk =   0.0219479
        k(    5) = (  -0.4444444   0.4444444  -0.4444444), wk =   0.0219479
        k(    6) = (   0.0000000   0.2222222   0.0000000), wk =   0.0164609
        k(    7) = (  -0.1111111   0.3333333  -0.1111111), wk =   0.0658436
        k(    8) = (  -0.2222222   0.4444444  -0.2222222), wk =   0.0658436
        k(    9) = (  -0.3333333   0.5555556  -0.3333333), wk =   0.0658436
        k(   10) = (   0.5555556  -0.3333333   0.5555556), wk =   0.0658436
        k(   11) = (   0.4444444  -0.2222222   0.4444444), wk =   0.0658436
        k(   12) = (   0.3333333  -0.1111111   0.3333333), wk =   0.0658436
        k(   13) = (   0.2222222  -0.0000000   0.2222222), wk =   0.0329218
        k(   14) = (   0.0000000   0.4444444   0.0000000), wk =   0.0164609
        k(   15) = (  -0.1111111   0.5555556  -0.1111111), wk =   0.0658436
        k(   16) = (  -0.2222222   0.6666667  -0.2222222), wk =   0.0658436
        k(   17) = (   0.6666667  -0.2222222   0.6666667), wk =   0.0658436
        k(   18) = (   0.5555556  -0.1111111   0.5555556), wk =   0.0658436
        k(   19) = (   0.4444444   0.0000000   0.4444444), wk =   0.0329218
        k(   20) = (   0.0000000   0.6666667   0.0000000), wk =   0.0164609
        k(   21) = (  -0.1111111   0.7777778  -0.1111111), wk =   0.0658436
        k(   22) = (   0.7777778  -0.1111111   0.7777778), wk =   0.0658436
        k(   23) = (   0.6666667  -0.0000000   0.6666667), wk =   0.0329218
        k(   24) = (   0.0000000   0.8888889   0.0000000), wk =   0.0164609
        k(   25) = (   0.8888889   0.0000000   0.8888889), wk =   0.0329218
        k(   26) = (  -0.2222222   0.4444444   0.0000000), wk =   0.0658436
        k(   27) = (  -0.3333333   0.5555556  -0.1111111), wk =   0.1316872
        k(   28) = (   0.5555556  -0.3333333   0.7777778), wk =   0.1316872
        k(   29) = (  -0.2222222   0.6666667   0.0000000), wk =   0.0658436
        k(   30) = (   0.6666667  -0.2222222   0.8888889), wk =   0.1316872
        k(   31) = (   0.5555556  -0.1111111   0.7777778), wk =   0.1316872
        k(   32) = (   0.4444444   0.0000000   0.6666667), wk =   0.0658436
        k(   33) = (   0.7777778  -0.1111111   1.0000000), wk =   0.0658436
        k(   34) = (   0.6666667  -0.0000000   0.8888889), wk =   0.0658436
        k(   35) = (   0.5555556  -0.1111111   1.0000000), wk =   0.0658436

     Dense  grid:    25749 G-vectors     FFT dimensions: (  45,  45,  45)

     Largest allocated arrays     est. size (Mb)     dimensions
        Kohn-Sham Wavefunctions         0.18 Mb     (    801,   15)
        NL pseudopotentials             0.44 Mb     (    801,   36)
        Each V/rho on FFT grid          0.37 Mb     (  24300)
        Each G-vector array             0.05 Mb     (   6438)
        G-vector shells                 0.00 Mb     (    283)
     Largest temporary arrays     est. size (Mb)     dimensions
        Auxiliary wavefunctions         0.73 Mb     (    801,   60)
        Each subspace H/S matrix        0.05 Mb     (  60,  60)
        Each <psi_i|beta_j> matrix      0.01 Mb     (     36,   15)
        Arrays for rho mixing           2.97 Mb     (  24300,   8)

     Check: negative/imaginary core charge=   -0.000065    0.000000

     Initial potential from superposition of free atoms

     starting charge   21.99954, renormalised to   22.00000
     Starting wfc are   18 randomized atomic wfcs
     Checking if some PAW data can be deallocated... 

     total cpu time spent up to now is        4.3 secs

     per-process dynamical memory:    15.1 Mb

     Self-consistent Calculation

     iteration #  1     ecut=    80.00 Ry     beta=0.70
     Davidson diagonalization with overlap
     ethr =  1.00E-02,  avg # of iterations =  3.7

     Threshold (ethr) on eigenvalues was too large:
     Diagonalizing with lowered threshold

     Davidson diagonalization with overlap
     ethr =  1.04E-04,  avg # of iterations =  3.4

     total cpu time spent up to now is       16.8 secs

     total energy              =    -426.02794389 Ry
     Harris-Foulkes estimate   =    -426.04251673 Ry
     estimated scf accuracy    <       0.02181435 Ry

     iteration #  2     ecut=    80.00 Ry     beta=0.70
     Davidson diagonalization with overlap
     ethr =  9.92E-05,  avg # of iterations =  3.0

     total cpu time spent up to now is       24.4 secs

     total energy              =    -426.01229702 Ry
     Harris-Foulkes estimate   =    -426.07211969 Ry
     estimated scf accuracy    <       0.21174829 Ry

     iteration #  3     ecut=    80.00 Ry     beta=0.70
     Davidson diagonalization with overlap
     ethr =  9.92E-05,  avg # of iterations =  3.1

     total cpu time spent up to now is       31.6 secs

     total energy              =    -426.03902664 Ry
     Harris-Foulkes estimate   =    -426.04104686 Ry
     estimated scf accuracy    <       0.00421361 Ry

     iteration #  4     ecut=    80.00 Ry     beta=0.70
     Davidson diagonalization with overlap
     ethr =  1.92E-05,  avg # of iterations =  2.3

     total cpu time spent up to now is       38.3 secs

     total energy              =    -426.04004958 Ry
     Harris-Foulkes estimate   =    -426.04076732 Ry
     estimated scf accuracy    <       0.00250612 Ry

     iteration #  5     ecut=    80.00 Ry     beta=0.70
     Davidson diagonalization with overlap
     ethr =  1.14E-05,  avg # of iterations =  1.1

     total cpu time spent up to now is       43.6 secs

     total energy              =    -426.04034603 Ry
     Harris-Foulkes estimate   =    -426.04035115 Ry
     estimated scf accuracy    <       0.00001740 Ry

     iteration #  6     ecut=    80.00 Ry     beta=0.70
     Davidson diagonalization with overlap
     ethr =  7.91E-08,  avg # of iterations =  3.1

     total cpu time spent up to now is       51.2 secs

     total energy              =    -426.04037234 Ry
     Harris-Foulkes estimate   =    -426.04037342 Ry
     estimated scf accuracy    <       0.00000536 Ry

     iteration #  7     ecut=    80.00 Ry     beta=0.70
     Davidson diagonalization with overlap
     ethr =  2.44E-08,  avg # of iterations =  1.0

     total cpu time spent up to now is       56.5 secs

     total energy              =    -426.04037250 Ry
     Harris-Foulkes estimate   =    -426.04037266 Ry
     estimated scf accuracy    <       0.00000078 Ry

     iteration #  8     ecut=    80.00 Ry     beta=0.70
     Davidson diagonalization with overlap
     ethr =  3.56E-09,  avg # of iterations =  2.1

     total cpu time spent up to now is       62.1 secs

     End of self-consistent calculation

          k = 0.0000 0.0000 0.0000 (  3143 PWs)   bands (ev):

     0.6833   3.9810   3.9810   3.9810   4.0036   4.0036   5.0361   5.0361
     5.0361   5.6597   5.6597  16.3911  16.3911  16.3911  17.3357

          k =-0.1111 0.1111-0.1111 (  3209 PWs)   bands (ev):

     0.8720   3.9031   3.9031   3.9851   4.1107   4.1107   4.9981   5.0308
     5.0308   5.6603   5.6603  14.0263  15.6416  15.6416  17.8172

          k =-0.2222 0.2222-0.2222 (  3227 PWs)   bands (ev):

     1.4182   3.8711   3.8711   4.0035   4.1990   4.1990   4.9112   5.0452
     5.0452   5.6540   5.6540  11.2537  14.7742  14.7742  17.6183

          k =-0.3333 0.3333-0.3333 (  3203 PWs)   bands (ev):

     2.2277   3.8989   3.8989   4.0363   4.1972   4.1972   4.8880   5.1229
     5.1229   5.6271   5.6271   8.8051  14.1473  14.1473  17.5551

          k =-0.4444 0.4444-0.4444 (  3208 PWs)   bands (ev):

     2.9569   3.9669   3.9669   4.0358   4.1259   4.1259   5.2197   5.2197
     5.2333   5.5860   5.5860   6.8893  13.8183  13.8183  17.6814

          k = 0.0000 0.2222 0.0000 (  3207 PWs)   bands (ev):

     0.9354   3.8222   3.9914   3.9914   4.0583   4.1744   4.8881   5.0816
     5.0816   5.6149   5.6971  14.6218  14.6218  15.2232  16.4497

          k =-0.1111 0.3333-0.1111 (  3220 PWs)   bands (ev):

     1.3650   3.7675   3.9714   4.0009   4.1486   4.2687   4.7628   5.1083
     5.1339   5.5727   5.7184  12.2109  13.7551  14.6186  16.7655

          k =-0.2222 0.4444-0.2222 (  3207 PWs)   bands (ev):

     2.0983   3.7703   3.9807   4.0150   4.1827   4.3068   4.7182   5.1492
     5.2105   5.5377   5.7186   9.6741  13.2148  13.7331  16.6372

          k =-0.3333 0.5556-0.3333 (  3202 PWs)   bands (ev):

     2.8991   3.8151   3.9946   4.0222   4.1715   4.2488   4.8719   5.2431
     5.3609   5.5486   5.6878   7.5340  12.9490  13.0748  16.4816

          k = 0.5556-0.3333 0.5556 (  3201 PWs)   bands (ev):

     3.1806   3.8680   3.9331   4.0484   4.1497   4.2257   5.0758   5.1547
     5.5896   5.6256   5.7652   6.5410  12.4448  13.3619  16.6718

          k = 0.4444-0.2222 0.4444 (  3205 PWs)   bands (ev):

     2.6478   3.8493   3.9348   4.0474   4.1233   4.3034   4.9314   5.0238
     5.3502   5.5355   5.6905   8.2044  12.3133  14.0386  17.2136

          k = 0.3333-0.1111 0.3333 (  3201 PWs)   bands (ev):

     1.8242   3.8046   3.9438   3.9976   4.1621   4.3118   4.8465   4.9505
     5.2386   5.5563   5.7134  10.5018  12.5725  14.9930  18.0902

          k = 0.2222-0.0000 0.2222 (  3217 PWs)   bands (ev):

     1.1810   3.8225   3.9291   3.9944   4.1318   4.2242   4.9100   4.9728
     5.1332   5.6095   5.6986  13.0339  13.2890  15.9145  17.8705

          k = 0.0000 0.4444 0.0000 (  3199 PWs)   bands (ev):

     1.6736   3.6871   4.0105   4.0105   4.2143   4.3497   4.5522   5.2243
     5.2243   5.4840   5.7566  12.8089  12.8089  13.0161  15.4415

          k =-0.1111 0.5556-0.1111 (  3207 PWs)   bands (ev):

     2.3009   3.6646   4.0054   4.0138   4.2997   4.3863   4.4535   5.2966
     5.3142   5.4344   5.7882  10.6559  12.1852  12.2543  15.5642

          k =-0.2222 0.6667-0.2222 (  3203 PWs)   bands (ev):

     3.0689   3.6895   3.9709   4.0000   4.3247   4.3487   4.5859   5.2137
     5.5050   5.5391   5.8295   8.4730  11.2465  11.9960  15.5085

          k = 0.6667-0.2222 0.6667 (  3204 PWs)   bands (ev):

     3.4925   3.7306   3.9424   3.9753   4.2390   4.4072   4.8487   5.0637
     5.6558   5.6942   6.3734   6.6942  10.4780  12.2881  15.6824

          k = 0.5556-0.1111 0.5556 (  3196 PWs)   bands (ev):

     3.2122   3.8407   3.8615   4.0512   4.1154   4.4667   4.9169   4.9986
     5.5843   5.6566   5.7233   7.9293  10.0947  13.0209  16.1659

          k = 0.4444 0.0000 0.4444 (  3190 PWs)   bands (ev):

     2.5077   3.8045   3.9257   4.0179   4.1285   4.4333   4.8781   4.8888
     5.4449   5.4593   5.7396   9.8817  10.3080  14.0568  16.9747

          k = 0.0000 0.6667 0.0000 (  3210 PWs)   bands (ev):

     2.8099   3.6226   4.0208   4.0208   4.1744   4.4490   4.4844   5.2783
     5.4458   5.4458   5.8704  10.4023  11.4320  11.4320  14.8411

          k =-0.1111 0.7778-0.1111 (  3211 PWs)   bands (ev):

     3.4679   3.6421   3.9265   4.0137   4.1739   4.5099   4.5566   5.1356
     5.5749   5.5876   6.0335   9.0159  10.2632  11.1170  14.9374

          k = 0.7778-0.1111 0.7778 (  3211 PWs)   bands (ev):

     3.6590   3.8314   3.8892   3.9774   4.2680   4.6227   4.6323   4.9624
     5.6755   5.7510   6.5731   7.6600   8.9785  11.3198  15.0606

          k = 0.6667-0.0000 0.6667 (  3210 PWs)   bands (ev):

     3.5897   3.8469   3.9162   3.9475   4.1902   4.6315   4.8480   4.8633
     5.7215   5.7571   6.3341   7.8303   8.4650  12.0035  15.4569

          k = 0.0000 0.8889 0.0000 (  3222 PWs)   bands (ev):

     3.6711   3.8551   3.9838   4.0222   4.0222   4.4762   4.7290   5.0171
     5.6373   5.6373   6.3890   7.9897  10.6538  10.6538  14.6302

          k = 0.8889 0.0000 0.8889 (  3230 PWs)   bands (ev):

     3.7076   3.7738   4.0101   4.0195   4.3102   4.4158   4.8359   4.8688
     5.6761   5.7086   7.0945   7.1000   9.7045  10.7268  14.7481

          k =-0.2222 0.4444 0.0000 (  3211 PWs)   bands (ev):

     1.8940   3.7288   3.9878   4.0032   4.1922   4.3624   4.6350   5.1089
     5.2858   5.4984   5.7465  11.3460  11.7180  14.0275  16.9945

          k =-0.3333 0.5556-0.1111 (  3202 PWs)   bands (ev):

     2.6589   3.7454   3.9378   4.0478   4.1964   4.4017   4.6560   5.1455
     5.4063   5.4913   5.7572   9.1294  11.2003  13.0285  16.9843

          k = 0.5556-0.3333 0.7778 (  3207 PWs)   bands (ev):

     3.3037   3.7743   3.8824   4.0658   4.2164   4.3459   4.8609   5.1161
     5.6040   5.6718   5.8758   7.1641  11.1471  12.2932  16.8555

          k =-0.2222 0.6667 0.0000 (  3204 PWs)   bands (ev):

     2.9569   3.6599   3.9363   4.0415   4.3438   4.3759   4.4908   5.2207
     5.4697   5.5061   5.8535   9.8196  10.5352  11.5249  16.2374

          k = 0.6667-0.2222 0.8889 (  3203 PWs)   bands (ev):

     3.5551   3.6868   3.8600   4.0482   4.3521   4.4516   4.6110   5.0663
     5.6413   5.6907   6.0890   8.1396   9.8610  10.9062  16.3749

          k = 0.5556-0.1111 0.7778 (  3211 PWs)   bands (ev):

     3.6353   3.7611   3.8470   4.0489   4.2754   4.5293   4.7924   4.9339
     5.7105   5.7472   6.5311   7.2263   9.3210  11.1665  16.6699

          k = 0.4444 0.0000 0.6667 (  3200 PWs)   bands (ev):

     3.3007   3.7683   3.8488   4.0760   4.2018   4.5390   4.6689   5.0748
     5.6093   5.6389   5.8225   8.7223   9.2872  11.9767  17.2066

          k = 0.7778-0.1111 1.0000 (  3213 PWs)   bands (ev):

     3.6789   3.7837   3.9075   4.0392   4.2744   4.4799   4.6834   4.9778
     5.6853   5.6862   6.4568   8.0377   9.9021  10.0859  15.9078

          k = 0.6667-0.0000 0.8889 (  3199 PWs)   bands (ev):

     3.6753   3.7691   3.9763   4.0235   4.3417   4.5980   4.7396   4.8245
     5.7240   5.7761   7.1530   7.3619   8.6511  10.3428  16.1786

          k = 0.5556-0.1111 1.0000 (  3212 PWs)   bands (ev):

     3.7002   3.7120   3.9280   4.0532   4.4429   4.5542   4.6535   4.8708
     5.7500   5.7651   6.7651   7.8565   8.8684   9.7477  18.1190

     the Fermi energy is     6.7656 ev

!    total energy              =    -426.04037257 Ry
     Harris-Foulkes estimate   =    -426.04037260 Ry
     estimated scf accuracy    <       0.00000003 Ry

     total all-electron energy =     -6619.799909 Ry

     The total energy is the sum of the following terms:

     one-electron contribution =    -116.83850678 Ry
     hartree contribution      =      57.88040719 Ry
     xc contribution           =     -73.47354793 Ry
     ewald contribution        =    -127.80442418 Ry
     one-center paw contrib.   =    -165.80424255 Ry
     smearing contrib. (-TS)   =      -0.00005832 Ry

     convergence has been achieved in   8 iterations

     Writing output data file Cu.save

     init_run     :      3.39s CPU      3.49s WALL (       1 calls)
     electrons    :     56.27s CPU     57.74s WALL (       1 calls)

     Called by init_run:
     wfcinit      :      2.08s CPU      2.13s WALL (       1 calls)
     potinit      :      0.43s CPU      0.44s WALL (       1 calls)

     Called by electrons:
     c_bands      :     43.54s CPU     44.67s WALL (       9 calls)
     sum_band     :      8.27s CPU      8.45s WALL (       9 calls)
     v_of_rho     :      0.43s CPU      0.43s WALL (       9 calls)
     newd         :      0.74s CPU      0.74s WALL (       9 calls)
     mix_rho      :      0.51s CPU      0.52s WALL (       9 calls)

     Called by c_bands:
     init_us_2    :      0.79s CPU      0.82s WALL (     665 calls)
     cegterg      :     41.50s CPU     42.54s WALL (     315 calls)

     Called by *egterg:
     h_psi        :     37.91s CPU     38.82s WALL (    1143 calls)
     s_psi        :      0.86s CPU      0.86s WALL (    1143 calls)
     g_psi        :      0.23s CPU      0.24s WALL (     793 calls)
     cdiaghg      :      1.32s CPU      1.36s WALL (    1073 calls)

     Called by h_psi:
     add_vuspsi   :      0.85s CPU      0.86s WALL (    1143 calls)

     General routines
     calbec       :      1.22s CPU      1.23s WALL (    1458 calls)
     fft          :      0.20s CPU      0.20s WALL (     119 calls)
     fftw         :     37.83s CPU     38.99s WALL (   30973 calls)
     davcio       :      0.15s CPU      0.15s WALL (     980 calls)

     Parallel routines
     fft_scatter  :      9.26s CPU      9.46s WALL (   31092 calls)

     PAW routines
     PAW_pot      :      3.20s CPU      3.32s WALL (       9 calls)
     PAW_ddot     :      0.47s CPU      0.48s WALL (      86 calls)
     PAW_symme    :      0.01s CPU      0.01s WALL (      18 calls)

     PWSCF        :  1m 0.74s CPU     1m 2.35s WALL


   This run was terminated on:  20:39:27  11Jul2015            

=------------------------------------------------------------------------------=
   JOB DONE.
=------------------------------------------------------------------------------=
