
     Program PWSCF v.5.0.2 (svn rev. 9656) starts on 26Jul2015 at  2:26:52 

     This program is part of the open-source Quantum ESPRESSO suite
     for quantum simulation of materials; please cite
         "P. Giannozzi et al., J. Phys.:Condens. Matter 21 395502 (2009);
          URL http://www.quantum-espresso.org", 
     in publications or presentations arising from this work. More details at
     http://www.quantum-espresso.org/quote.php

     Parallel version (MPI), running on     4 processors
     R & G space division:  proc/nbgrp/npool/nimage =       4

     Current dimensions of program PWSCF are:
     Max number of different atomic species (ntypx) = 10
     Max number of k-points (npk) =  40000
     Max angular momentum in pseudopotentials (lmaxx) =  3
     Waiting for input...
     Reading input from standard input
               file C.pbe-rrkjus.UPF: wavefunction(s)  2S 2P renormalized

     Subspace diagonalization in iterative solution of the eigenvalue problem:
     a serial algorithm will be used


     Parallelization info
     --------------------
     sticks:   dense  smooth     PW     G-vecs:    dense   smooth      PW
     Min         211      94     30                58589    18430    3250
     Max         212      95     31                58614    18483    3291
     Sum         847     379    121               234415    73853   13061



     bravais-lattice index     =            0
     lattice parameter (alat)  =       4.6500  a.u.
     unit-cell volume          =    1044.8904 (a.u.)^3
     number of atoms/cell      =            2
     number of atomic types    =            1
     number of electrons       =         8.00
     number of Kohn-Sham states=            8
     kinetic-energy cutoff     =      65.0000  Ry
     charge density cutoff     =     560.0000  Ry
     convergence threshold     =      1.0E-08
     mixing beta               =       0.7000
     number of iterations used =            8  plain     mixing
     Exchange-correlation      =  SLA  PW   PBE  PBE ( 1 4 3 4 0)
     EXX-fraction              =        0.00

     celldm(1)=   4.650000  celldm(2)=   0.000000  celldm(3)=   0.000000
     celldm(4)=   0.000000  celldm(5)=   0.000000  celldm(6)=   0.000000

     crystal axes: (cart. coord. in units of alat)
               a(1) = (   1.000000   0.000000   0.000000 )  
               a(2) = (   0.500000   0.866025   0.000000 )  
               a(3) = (   0.000000   0.000000  12.000000 )  

     reciprocal axes: (cart. coord. in units 2 pi/alat)
               b(1) = (  1.000000 -0.577350  0.000000 )  
               b(2) = (  0.000000  1.154701  0.000000 )  
               b(3) = (  0.000000  0.000000  0.083333 )  


     PseudoPot. # 1 for C  read from file:
     ./C.pbe-rrkjus.UPF
     MD5 check sum: 00fb224312de0c5b6853bd333518df6f
     Pseudo is Ultrasoft, Zval =  4.0
     Generated by new atomic code, or converted to UPF format
     Using radial grid of  627 points,  4 beta functions with: 
                l(1) =   0
                l(2) =   0
                l(3) =   1
                l(4) =   1
     Q(r) pseudized with 0 coefficients 


     atomic species   valence    mass     pseudopotential
        C              4.00    12.00000     C ( 1.00)

     24 Sym. Ops., with inversion, found (12 have fractional translation)



   Cartesian axes

     site n.     atom                  positions (alat units)
         1           C   tau(   1) = (   0.0000000   0.0000000   0.0000000  )
         2           C   tau(   2) = (   1.0000000   0.5773503   0.0000000  )

     number of k points=    21  gaussian smearing, width (Ry)=  0.0010
                       cart. coord. in units 2pi/alat
        k(    1) = (   0.0000000   0.0000000   0.0000000), wk =   0.0118343
        k(    2) = (   0.0000000   0.0888231   0.0000000), wk =   0.0710059
        k(    3) = (   0.0000000   0.1776462   0.0000000), wk =   0.0710059
        k(    4) = (   0.0000000   0.2664694   0.0000000), wk =   0.0710059
        k(    5) = (   0.0000000   0.3552925   0.0000000), wk =   0.0710059
        k(    6) = (   0.0000000   0.4441156   0.0000000), wk =   0.0710059
        k(    7) = (   0.0000000   0.5329387   0.0000000), wk =   0.0710059
        k(    8) = (   0.0769231   0.1332347   0.0000000), wk =   0.0710059
        k(    9) = (   0.0769231   0.2220578   0.0000000), wk =   0.1420118
        k(   10) = (   0.0769231   0.3108809   0.0000000), wk =   0.1420118
        k(   11) = (   0.0769231   0.3997040   0.0000000), wk =   0.1420118
        k(   12) = (   0.0769231   0.4885272   0.0000000), wk =   0.1420118
        k(   13) = (   0.0769231  -0.5773503   0.0000000), wk =   0.0710059
        k(   14) = (   0.1538462   0.2664694   0.0000000), wk =   0.0710059
        k(   15) = (   0.1538462   0.3552925   0.0000000), wk =   0.1420118
        k(   16) = (   0.1538462   0.4441156   0.0000000), wk =   0.1420118
        k(   17) = (   0.1538462  -0.6217618   0.0000000), wk =   0.1420118
        k(   18) = (   0.2307692   0.3997040   0.0000000), wk =   0.0710059
        k(   19) = (   0.2307692  -0.6661734   0.0000000), wk =   0.1420118
        k(   20) = (   0.2307692  -0.5773503   0.0000000), wk =   0.0710059
        k(   21) = (   0.3076923  -0.6217618   0.0000000), wk =   0.0710059

     Dense  grid:   234415 G-vectors     FFT dimensions: (  36,  36, 432)

     Smooth grid:    73853 G-vectors     FFT dimensions: (  24,  24, 288)

     Largest allocated arrays     est. size (Mb)     dimensions
        Kohn-Sham Wavefunctions         0.28 Mb     (   2307,    8)
        NL pseudopotentials             0.56 Mb     (   2307,   16)
        Each V/rho on FFT grid          2.14 Mb     ( 139968)
        Each G-vector array             0.45 Mb     (  58604)
        G-vector shells                 0.13 Mb     (  17277)
     Largest temporary arrays     est. size (Mb)     dimensions
        Auxiliary wavefunctions         1.13 Mb     (   2307,   32)
        Each subspace H/S matrix        0.02 Mb     (  32,  32)
        Each <psi_i|beta_j> matrix      0.00 Mb     (     16,    8)
        Arrays for rho mixing          17.09 Mb     ( 139968,   8)

     Initial potential from superposition of free atoms

     starting charge    7.99989, renormalised to    8.00000

     negative rho (up, down):  0.254E-04 0.000E+00
     Starting wfc are    8 randomized atomic wfcs

     total cpu time spent up to now is        3.9 secs

     per-process dynamical memory:    36.6 Mb

     Self-consistent Calculation

     iteration #  1     ecut=    65.00 Ry     beta=0.70
     Davidson diagonalization with overlap
     ethr =  1.00E-02,  avg # of iterations =  5.4

     negative rho (up, down):  0.177E-04 0.000E+00

     total cpu time spent up to now is       13.3 secs

     total energy              =     -22.75970763 Ry
     Harris-Foulkes estimate   =     -22.88420544 Ry
     estimated scf accuracy    <       0.20661606 Ry

     iteration #  2     ecut=    65.00 Ry     beta=0.70
     Davidson diagonalization with overlap
     ethr =  2.58E-03,  avg # of iterations =  4.0

     negative rho (up, down):  0.171E-04 0.000E+00

     total cpu time spent up to now is       20.7 secs

     total energy              =     -22.79087602 Ry
     Harris-Foulkes estimate   =     -22.79101285 Ry
     estimated scf accuracy    <       0.00251977 Ry

     iteration #  3     ecut=    65.00 Ry     beta=0.70
     Davidson diagonalization with overlap
     ethr =  3.15E-05,  avg # of iterations = 11.3

     negative rho (up, down):  0.186E-04 0.000E+00

     total cpu time spent up to now is       33.0 secs

     total energy              =     -22.79123828 Ry
     Harris-Foulkes estimate   =     -22.79120818 Ry
     estimated scf accuracy    <       0.00013750 Ry

     iteration #  4     ecut=    65.00 Ry     beta=0.70
     Davidson diagonalization with overlap
     c_bands:  1 eigenvalues not converged
     ethr =  1.72E-06,  avg # of iterations =  4.7

     negative rho (up, down):  0.187E-04 0.000E+00

     total cpu time spent up to now is       41.1 secs

     total energy              =     -22.79124374 Ry
     Harris-Foulkes estimate   =     -22.79124292 Ry
     estimated scf accuracy    <       0.00000094 Ry

     iteration #  5     ecut=    65.00 Ry     beta=0.70
     Davidson diagonalization with overlap
     ethr =  1.18E-08,  avg # of iterations =  3.0

     negative rho (up, down):  0.187E-04 0.000E+00

     total cpu time spent up to now is       48.9 secs

     total energy              =     -22.79124404 Ry
     Harris-Foulkes estimate   =     -22.79124404 Ry
     estimated scf accuracy    <       0.00000003 Ry

     iteration #  6     ecut=    65.00 Ry     beta=0.70
     Davidson diagonalization with overlap
     ethr =  3.25E-10,  avg # of iterations =  2.0

     negative rho (up, down):  0.186E-04 0.000E+00

     total cpu time spent up to now is       55.8 secs

     End of self-consistent calculation

          k = 0.0000 0.0000 0.0000 (  9149 PWs)   bands (ev):

   -22.4918 -10.6021  -6.0250  -6.0250   0.3035   1.0417   1.2090   1.5614

          k = 0.0000 0.0888 0.0000 (  9127 PWs)   bands (ev):

   -22.3518 -10.4344  -6.5809  -6.3170   0.4940   1.2354   1.4049   1.7562

          k = 0.0000 0.1776 0.0000 (  9163 PWs)   bands (ev):

   -21.9332  -9.9352  -8.0122  -7.0227   1.0656   1.8158   1.9924   2.3406

          k = 0.0000 0.2665 0.0000 (  9220 PWs)   bands (ev):

   -21.2399  -9.8973  -9.1177  -7.8438   2.0168   2.7774   2.9716   3.3111

          k = 0.0000 0.3553 0.0000 (  9206 PWs)   bands (ev):

   -20.2802 -11.9276  -8.5733  -8.0141   2.6845   3.3416   4.1553   4.3419

          k = 0.0000 0.4441 0.0000 (  9218 PWs)   bands (ev):

   -19.0713 -13.9189  -9.1020  -6.7115   0.6052   4.6239   5.0903   5.8723

          k = 0.0000 0.5329 0.0000 (  9274 PWs)   bands (ev):

   -17.6864 -15.7129  -9.3770  -5.5373  -0.9946   4.5180   7.1139   7.9546

          k = 0.0769 0.1332 0.0000 (  9168 PWs)   bands (ev):

   -22.0725 -10.1009  -7.4901  -6.9014   0.8752   1.6225   1.7966   2.1457

          k = 0.0769 0.2221 0.0000 (  9190 PWs)   bands (ev):

   -21.5165  -9.4419  -9.0183  -7.7974   1.6372   2.3949   2.5800   2.9241

          k = 0.0769 0.3109 0.0000 (  9238 PWs)   bands (ev):

   -20.6900 -10.9048  -8.6455  -8.4779   2.7772   3.4700   3.7099   3.7550

          k = 0.0769 0.3997 0.0000 (  9250 PWs)   bands (ev):

   -19.6049 -12.8844  -9.3065  -7.2593   1.5502   4.2850   5.0978   5.3167

          k = 0.0769 0.4885 0.0000 (  9264 PWs)   bands (ev):

   -18.2915 -14.7800  -9.7210  -5.9436  -0.3442   5.1762   6.1900   6.9931

          k = 0.0769-0.5774 0.0000 (  9274 PWs)   bands (ev):

   -17.1402 -16.1320  -9.8618  -5.1912  -1.3007   5.1142   8.3097   8.4713

          k = 0.1538 0.2665 0.0000 (  9230 PWs)   bands (ev):

   -20.8273 -10.2658  -9.0052  -8.6342   2.5889   3.3568   3.5592   3.8959

          k = 0.1538 0.3553 0.0000 (  9259 PWs)   bands (ev):

   -19.8749 -11.8705 -10.0178  -7.5426   2.2088   3.9154   4.6950   4.9300

          k = 0.1538 0.4441 0.0000 (  9281 PWs)   bands (ev):

   -18.6786 -13.6755 -10.6505  -6.2455   0.3434   5.6035   6.3813   6.6914

          k = 0.1538-0.6218 0.0000 (  9305 PWs)   bands (ev):

   -17.3161 -15.3854 -10.9573  -5.0422  -1.1741   6.7232   7.6518   8.2494

          k = 0.2308 0.3997 0.0000 (  9254 PWs)   bands (ev):

   -18.8100 -12.9094 -11.3957  -6.3547   0.6541   5.4199   6.1639   6.4965

          k = 0.2308-0.6662 0.0000 (  9295 PWs)   bands (ev):

   -17.5328 -14.3048 -12.1774  -5.0297  -0.9052   7.2609   7.6768   8.4535

          k = 0.2308-0.5774 0.0000 (  9342 PWs)   bands (ev):

   -16.4240 -15.5083 -12.3955  -4.1734  -1.8437   8.1395   8.7367   9.2148

          k = 0.3077-0.6218 0.0000 (  9336 PWs)   bands (ev):

   -16.2593 -15.0016 -13.3127  -3.7264  -2.1833   7.7695   9.1203  10.0982

     the Fermi energy is    -3.1364 ev

!    total energy              =     -22.79124405 Ry
     Harris-Foulkes estimate   =     -22.79124405 Ry
     estimated scf accuracy    <          5.0E-10 Ry

     The total energy is the sum of the following terms:

     one-electron contribution =    -353.76070108 Ry
     hartree contribution      =     177.88988427 Ry
     xc contribution           =      -7.02466867 Ry
     ewald contribution        =     160.10424143 Ry
     smearing contrib. (-TS)   =      -0.00000000 Ry

     convergence has been achieved in   6 iterations

     Writing output data file graphene.save

     init_run     :      3.66s CPU      3.86s WALL (       1 calls)
     electrons    :     49.45s CPU     51.83s WALL (       1 calls)

     Called by init_run:
     wfcinit      :      1.28s CPU      1.35s WALL (       1 calls)
     potinit      :      1.08s CPU      1.13s WALL (       1 calls)

     Called by electrons:
     c_bands      :     33.69s CPU     35.16s WALL (       6 calls)
     sum_band     :      9.61s CPU     10.09s WALL (       6 calls)
     v_of_rho     :      2.63s CPU      2.80s WALL (       7 calls)
     newd         :      3.07s CPU      3.24s WALL (       7 calls)
     mix_rho      :      0.39s CPU      0.40s WALL (       6 calls)

     Called by c_bands:
     init_us_2    :      0.53s CPU      0.62s WALL (     273 calls)
     cegterg      :     32.97s CPU     34.29s WALL (     126 calls)

     Called by *egterg:
     h_psi        :     29.83s CPU     31.03s WALL (     787 calls)
     s_psi        :      0.54s CPU      0.54s WALL (     787 calls)
     g_psi        :      0.17s CPU      0.18s WALL (     640 calls)
     cdiaghg      :      0.34s CPU      0.35s WALL (     766 calls)

     Called by h_psi:
     add_vuspsi   :      0.52s CPU      0.53s WALL (     787 calls)

     General routines
     calbec       :      1.02s CPU      1.03s WALL (     913 calls)
     fft          :      2.44s CPU      2.63s WALL (     107 calls)
     ffts         :      0.08s CPU      0.08s WALL (      13 calls)
     fftw         :     21.61s CPU     22.62s WALL (    7732 calls)
     interpolate  :      0.49s CPU      0.53s WALL (      13 calls)
     davcio       :      0.17s CPU      0.21s WALL (     399 calls)

     Parallel routines
     fft_scatter  :     12.48s CPU     13.36s WALL (    7852 calls)

     PWSCF        :    53.41s CPU        56.03s WALL


   This run was terminated on:   2:27:48  26Jul2015            

=------------------------------------------------------------------------------=
   JOB DONE.
=------------------------------------------------------------------------------=
