
     Program PWSCF v.5.0.2 (svn rev. 9656) starts on 12Jul2015 at  2:21:56 

     This program is part of the open-source Quantum ESPRESSO suite
     for quantum simulation of materials; please cite
         "P. Giannozzi et al., J. Phys.:Condens. Matter 21 395502 (2009);
          URL http://www.quantum-espresso.org", 
     in publications or presentations arising from this work. More details at
     http://www.quantum-espresso.org/quote.php

     Parallel version (MPI), running on     4 processors
     R & G space division:  proc/nbgrp/npool/nimage =       4

     Current dimensions of program PWSCF are:
     Max number of different atomic species (ntypx) = 10
     Max number of k-points (npk) =  40000
     Max angular momentum in pseudopotentials (lmaxx) =  3
     Waiting for input...
     Reading input from standard input
               file Al.pbe-n-kjpaw_psl.0.1.UPF: wavefunction(s)  3S renormalized

     Subspace diagonalization in iterative solution of the eigenvalue problem:
     a serial algorithm will be used


     Parallelization info
     --------------------
     sticks:   dense  smooth     PW     G-vecs:    dense   smooth      PW
     Min         168     168     52                 2946     2946     520
     Max         169     169     53                 2951     2951     522
     Sum         673     673    211                11791    11791    2085



     bravais-lattice index     =            2
     lattice parameter (alat)  =       7.6300  a.u.
     unit-cell volume          =     111.0487 (a.u.)^3
     number of atoms/cell      =            1
     number of atomic types    =            1
     number of electrons       =         3.00
     number of Kohn-Sham states=            6
     kinetic-energy cutoff     =      85.0000  Ry
     charge density cutoff     =     340.0000  Ry
     convergence threshold     =      1.0E-07
     mixing beta               =       0.7000
     number of iterations used =            8  plain     mixing
     Exchange-correlation      =  SLA  PW   PBX  PBC ( 1 4 3 4 0)
     EXX-fraction              =        0.00

     celldm(1)=   7.630000  celldm(2)=   0.000000  celldm(3)=   0.000000
     celldm(4)=   0.000000  celldm(5)=   0.000000  celldm(6)=   0.000000

     crystal axes: (cart. coord. in units of alat)
               a(1) = (  -0.500000   0.000000   0.500000 )  
               a(2) = (   0.000000   0.500000   0.500000 )  
               a(3) = (  -0.500000   0.500000   0.000000 )  

     reciprocal axes: (cart. coord. in units 2 pi/alat)
               b(1) = ( -1.000000 -1.000000  1.000000 )  
               b(2) = (  1.000000  1.000000  1.000000 )  
               b(3) = ( -1.000000  1.000000 -1.000000 )  


     PseudoPot. # 1 for Al read from file:
     ./Al.pbe-n-kjpaw_psl.0.1.UPF
     MD5 check sum: 023d9faf819c76fc4df1f064efe7b7b2
     Pseudo is Projector augmented-wave + core cor, Zval =  3.0
     Generated using "atomic" code by A. Dal Corso  v.5.0.2 svn rev. 9415
     Shape of augmentation charge: PSQ
     Using radial grid of 1135 points,  4 beta functions with: 
                l(1) =   0
                l(2) =   0
                l(3) =   1
                l(4) =   1
     Q(r) pseudized with 0 coefficients 


     atomic species   valence    mass     pseudopotential
        Al             3.00    26.98154     Al( 1.00)

     48 Sym. Ops., with inversion, found



   Cartesian axes

     site n.     atom                  positions (alat units)
         1           Al  tau(   1) = (   0.0000000   0.0000000   0.0000000  )

     number of k points=   104  gaussian smearing, width (Ry)=  0.0030

     Number of k-points >= 100: set verbosity='high' to print them.

     Dense  grid:    11791 G-vectors     FFT dimensions: (  32,  32,  32)

     Largest allocated arrays     est. size (Mb)     dimensions
        Kohn-Sham Wavefunctions         0.04 Mb     (    384,    6)
        NL pseudopotentials             0.05 Mb     (    384,    8)
        Each V/rho on FFT grid          0.12 Mb     (   8192)
        Each G-vector array             0.02 Mb     (   2948)
        G-vector shells                 0.00 Mb     (    168)
     Largest temporary arrays     est. size (Mb)     dimensions
        Auxiliary wavefunctions         0.14 Mb     (    384,   24)
        Each subspace H/S matrix        0.01 Mb     (  24,  24)
        Each <psi_i|beta_j> matrix      0.00 Mb     (      8,    6)
        Arrays for rho mixing           1.00 Mb     (   8192,   8)

     Initial potential from superposition of free atoms

     starting charge    2.99771, renormalised to    3.00000
     Starting wfc are    4 randomized atomic wfcs
     Checking if some PAW data can be deallocated... 

     total cpu time spent up to now is        1.5 secs

     per-process dynamical memory:     9.5 Mb

     Self-consistent Calculation

     iteration #  1     ecut=    85.00 Ry     beta=0.70
     Davidson diagonalization with overlap
     ethr =  1.00E-02,  avg # of iterations =  5.0

     Threshold (ethr) on eigenvalues was too large:
     Diagonalizing with lowered threshold

     Davidson diagonalization with overlap
     ethr =  1.98E-04,  avg # of iterations =  2.1

     total cpu time spent up to now is        5.6 secs

     total energy              =     -39.50248304 Ry
     Harris-Foulkes estimate   =     -39.50391495 Ry
     estimated scf accuracy    <       0.00564138 Ry

     iteration #  2     ecut=    85.00 Ry     beta=0.70
     Davidson diagonalization with overlap
     ethr =  1.88E-04,  avg # of iterations =  1.1

     total cpu time spent up to now is        7.1 secs

     total energy              =     -39.50244425 Ry
     Harris-Foulkes estimate   =     -39.50255183 Ry
     estimated scf accuracy    <       0.00040941 Ry

     iteration #  3     ecut=    85.00 Ry     beta=0.70
     Davidson diagonalization with overlap
     ethr =  1.36E-05,  avg # of iterations =  1.7

     total cpu time spent up to now is        8.8 secs

     total energy              =     -39.50246558 Ry
     Harris-Foulkes estimate   =     -39.50246618 Ry
     estimated scf accuracy    <       0.00000145 Ry

     iteration #  4     ecut=    85.00 Ry     beta=0.70
     Davidson diagonalization with overlap
     ethr =  4.83E-08,  avg # of iterations =  3.4

     total cpu time spent up to now is       11.2 secs

     total energy              =     -39.50246697 Ry
     Harris-Foulkes estimate   =     -39.50246688 Ry
     estimated scf accuracy    <       0.00000011 Ry

     iteration #  5     ecut=    85.00 Ry     beta=0.70
     Davidson diagonalization with overlap
     ethr =  3.69E-09,  avg # of iterations =  2.4

     total cpu time spent up to now is       13.4 secs

     total energy              =     -39.50246682 Ry
     Harris-Foulkes estimate   =     -39.50246701 Ry
     estimated scf accuracy    <       0.00000052 Ry

     iteration #  6     ecut=    85.00 Ry     beta=0.70
     Davidson diagonalization with overlap
     ethr =  3.69E-09,  avg # of iterations =  1.4

     total cpu time spent up to now is       15.2 secs

     End of self-consistent calculation

     Number of k-points >= 100: set verbosity='high' to print the bands.

     the Fermi energy is     7.9017 ev

!    total energy              =     -39.50246683 Ry
     Harris-Foulkes estimate   =     -39.50246683 Ry
     estimated scf accuracy    <          8.5E-11 Ry

     total all-electron energy =      -485.645249 Ry

     The total energy is the sum of the following terms:

     one-electron contribution =       3.16838992 Ry
     hartree contribution      =       0.00563345 Ry
     xc contribution           =      -3.03130566 Ry
     ewald contribution        =      -5.40809419 Ry
     one-center paw contrib.   =     -34.23706912 Ry
     smearing contrib. (-TS)   =      -0.00002123 Ry

     convergence has been achieved in   6 iterations

     Writing output data file Al.save

     init_run     :      0.79s CPU      1.00s WALL (       1 calls)
     electrons    :      9.48s CPU     13.72s WALL (       1 calls)

     Called by init_run:
     wfcinit      :      0.39s CPU      0.51s WALL (       1 calls)
     potinit      :      0.08s CPU      0.10s WALL (       1 calls)

     Called by electrons:
     c_bands      :      7.53s CPU     10.83s WALL (       7 calls)
     sum_band     :      1.39s CPU      2.08s WALL (       7 calls)
     v_of_rho     :      0.10s CPU      0.13s WALL (       7 calls)
     newd         :      0.04s CPU      0.05s WALL (       7 calls)
     mix_rho      :      0.08s CPU      0.12s WALL (       7 calls)

     Called by c_bands:
     init_us_2    :      0.45s CPU      0.46s WALL (    1560 calls)
     cegterg      :      7.12s CPU     10.34s WALL (     728 calls)

     Called by *egterg:
     h_psi        :      5.62s CPU      8.23s WALL (    2601 calls)
     s_psi        :      0.09s CPU      0.11s WALL (    2601 calls)
     g_psi        :      0.07s CPU      0.10s WALL (    1769 calls)
     cdiaghg      :      0.67s CPU      0.93s WALL (    2393 calls)

     Called by h_psi:
     add_vuspsi   :      0.12s CPU      0.13s WALL (    2601 calls)

     General routines
     calbec       :      0.27s CPU      0.48s WALL (    3329 calls)
     fft          :      0.04s CPU      0.07s WALL (      93 calls)
     fftw         :      5.16s CPU      7.91s WALL (   27736 calls)
     davcio       :      0.05s CPU      0.09s WALL (    2288 calls)

     Parallel routines
     fft_scatter  :      2.74s CPU      5.06s WALL (   27829 calls)

     PAW routines
     PAW_pot      :      0.38s CPU      0.55s WALL (       7 calls)
     PAW_ddot     :      0.07s CPU      0.11s WALL (      37 calls)
     PAW_symme    :      0.00s CPU      0.00s WALL (      14 calls)

     PWSCF        :    11.16s CPU        15.80s WALL


   This run was terminated on:   2:22:11  12Jul2015            

=------------------------------------------------------------------------------=
   JOB DONE.
=------------------------------------------------------------------------------=
