
     Program PWSCF v.5.0.2 (svn rev. 9656) starts on 26Jul2015 at  2:10: 3 

     This program is part of the open-source Quantum ESPRESSO suite
     for quantum simulation of materials; please cite
         "P. Giannozzi et al., J. Phys.:Condens. Matter 21 395502 (2009);
          URL http://www.quantum-espresso.org", 
     in publications or presentations arising from this work. More details at
     http://www.quantum-espresso.org/quote.php

     Parallel version (MPI), running on     4 processors
     R & G space division:  proc/nbgrp/npool/nimage =       4

     Current dimensions of program PWSCF are:
     Max number of different atomic species (ntypx) = 10
     Max number of k-points (npk) =  40000
     Max angular momentum in pseudopotentials (lmaxx) =  3
     Waiting for input...
     Reading input from standard input
               file C.pbe-rrkjus.UPF: wavefunction(s)  2S 2P renormalized

     Subspace diagonalization in iterative solution of the eigenvalue problem:
     a serial algorithm will be used


     Parallelization info
     --------------------
     sticks:   dense  smooth     PW     G-vecs:    dense   smooth      PW
     Min         211      78     27                58589    14262    2591
     Max         212      79     28                58614    14319    2612
     Sum         847     313    109               234415    57119   10397



     bravais-lattice index     =            0
     lattice parameter (alat)  =       4.6500  a.u.
     unit-cell volume          =    1044.8904 (a.u.)^3
     number of atoms/cell      =            2
     number of atomic types    =            1
     number of electrons       =         8.00
     number of Kohn-Sham states=            8
     kinetic-energy cutoff     =      55.0000  Ry
     charge density cutoff     =     560.0000  Ry
     convergence threshold     =      1.0E-08
     mixing beta               =       0.7000
     number of iterations used =            8  plain     mixing
     Exchange-correlation      =  SLA  PW   PBE  PBE ( 1 4 3 4 0)
     EXX-fraction              =        0.00

     celldm(1)=   4.650000  celldm(2)=   0.000000  celldm(3)=   0.000000
     celldm(4)=   0.000000  celldm(5)=   0.000000  celldm(6)=   0.000000

     crystal axes: (cart. coord. in units of alat)
               a(1) = (   1.000000   0.000000   0.000000 )  
               a(2) = (   0.500000   0.866025   0.000000 )  
               a(3) = (   0.000000   0.000000  12.000000 )  

     reciprocal axes: (cart. coord. in units 2 pi/alat)
               b(1) = (  1.000000 -0.577350  0.000000 )  
               b(2) = (  0.000000  1.154701  0.000000 )  
               b(3) = (  0.000000  0.000000  0.083333 )  


     PseudoPot. # 1 for C  read from file:
     ./C.pbe-rrkjus.UPF
     MD5 check sum: 00fb224312de0c5b6853bd333518df6f
     Pseudo is Ultrasoft, Zval =  4.0
     Generated by new atomic code, or converted to UPF format
     Using radial grid of  627 points,  4 beta functions with: 
                l(1) =   0
                l(2) =   0
                l(3) =   1
                l(4) =   1
     Q(r) pseudized with 0 coefficients 


     atomic species   valence    mass     pseudopotential
        C              4.00    12.00000     C ( 1.00)

     24 Sym. Ops., with inversion, found (12 have fractional translation)



   Cartesian axes

     site n.     atom                  positions (alat units)
         1           C   tau(   1) = (   0.0000000   0.0000000   0.0000000  )
         2           C   tau(   2) = (   1.0000000   0.5773503   0.0000000  )

     number of k points=    21  gaussian smearing, width (Ry)=  0.0010
                       cart. coord. in units 2pi/alat
        k(    1) = (   0.0000000   0.0000000   0.0000000), wk =   0.0118343
        k(    2) = (   0.0000000   0.0888231   0.0000000), wk =   0.0710059
        k(    3) = (   0.0000000   0.1776462   0.0000000), wk =   0.0710059
        k(    4) = (   0.0000000   0.2664694   0.0000000), wk =   0.0710059
        k(    5) = (   0.0000000   0.3552925   0.0000000), wk =   0.0710059
        k(    6) = (   0.0000000   0.4441156   0.0000000), wk =   0.0710059
        k(    7) = (   0.0000000   0.5329387   0.0000000), wk =   0.0710059
        k(    8) = (   0.0769231   0.1332347   0.0000000), wk =   0.0710059
        k(    9) = (   0.0769231   0.2220578   0.0000000), wk =   0.1420118
        k(   10) = (   0.0769231   0.3108809   0.0000000), wk =   0.1420118
        k(   11) = (   0.0769231   0.3997040   0.0000000), wk =   0.1420118
        k(   12) = (   0.0769231   0.4885272   0.0000000), wk =   0.1420118
        k(   13) = (   0.0769231  -0.5773503   0.0000000), wk =   0.0710059
        k(   14) = (   0.1538462   0.2664694   0.0000000), wk =   0.0710059
        k(   15) = (   0.1538462   0.3552925   0.0000000), wk =   0.1420118
        k(   16) = (   0.1538462   0.4441156   0.0000000), wk =   0.1420118
        k(   17) = (   0.1538462  -0.6217618   0.0000000), wk =   0.1420118
        k(   18) = (   0.2307692   0.3997040   0.0000000), wk =   0.0710059
        k(   19) = (   0.2307692  -0.6661734   0.0000000), wk =   0.1420118
        k(   20) = (   0.2307692  -0.5773503   0.0000000), wk =   0.0710059
        k(   21) = (   0.3076923  -0.6217618   0.0000000), wk =   0.0710059

     Dense  grid:   234415 G-vectors     FFT dimensions: (  36,  36, 432)

     Smooth grid:    57119 G-vectors     FFT dimensions: (  24,  24, 270)

     Largest allocated arrays     est. size (Mb)     dimensions
        Kohn-Sham Wavefunctions         0.23 Mb     (   1856,    8)
        NL pseudopotentials             0.45 Mb     (   1856,   16)
        Each V/rho on FFT grid          2.14 Mb     ( 139968)
        Each G-vector array             0.45 Mb     (  58604)
        G-vector shells                 0.13 Mb     (  17417)
     Largest temporary arrays     est. size (Mb)     dimensions
        Auxiliary wavefunctions         0.91 Mb     (   1856,   32)
        Each subspace H/S matrix        0.02 Mb     (  32,  32)
        Each <psi_i|beta_j> matrix      0.00 Mb     (     16,    8)
        Arrays for rho mixing          17.09 Mb     ( 139968,   8)

     Initial potential from superposition of free atoms

     starting charge    7.99989, renormalised to    8.00000

     negative rho (up, down):  0.254E-04 0.000E+00
     Starting wfc are    8 randomized atomic wfcs

     total cpu time spent up to now is        3.3 secs

     per-process dynamical memory:    36.4 Mb

     Self-consistent Calculation

     iteration #  1     ecut=    55.00 Ry     beta=0.70
     Davidson diagonalization with overlap
     ethr =  1.00E-02,  avg # of iterations =  5.0

     negative rho (up, down):  0.176E-04 0.000E+00

     total cpu time spent up to now is        9.0 secs

     total energy              =     -22.75970184 Ry
     Harris-Foulkes estimate   =     -22.88416783 Ry
     estimated scf accuracy    <       0.20657707 Ry

     iteration #  2     ecut=    55.00 Ry     beta=0.70
     Davidson diagonalization with overlap
     ethr =  2.58E-03,  avg # of iterations =  3.9

     negative rho (up, down):  0.170E-04 0.000E+00

     total cpu time spent up to now is       13.4 secs

     total energy              =     -22.79085226 Ry
     Harris-Foulkes estimate   =     -22.79098742 Ry
     estimated scf accuracy    <       0.00251416 Ry

     iteration #  3     ecut=    55.00 Ry     beta=0.70
     Davidson diagonalization with overlap
     ethr =  3.14E-05,  avg # of iterations = 11.7

     negative rho (up, down):  0.187E-04 0.000E+00

     total cpu time spent up to now is       20.6 secs

     total energy              =     -22.79121167 Ry
     Harris-Foulkes estimate   =     -22.79118189 Ry
     estimated scf accuracy    <       0.00013811 Ry

     iteration #  4     ecut=    55.00 Ry     beta=0.70
     Davidson diagonalization with overlap
     ethr =  1.73E-06,  avg # of iterations =  4.5

     negative rho (up, down):  0.187E-04 0.000E+00

     total cpu time spent up to now is       25.2 secs

     total energy              =     -22.79121699 Ry
     Harris-Foulkes estimate   =     -22.79121619 Ry
     estimated scf accuracy    <       0.00000092 Ry

     iteration #  5     ecut=    55.00 Ry     beta=0.70
     Davidson diagonalization with overlap
     ethr =  1.15E-08,  avg # of iterations =  2.3

     negative rho (up, down):  0.187E-04 0.000E+00

     total cpu time spent up to now is       29.5 secs

     total energy              =     -22.79121730 Ry
     Harris-Foulkes estimate   =     -22.79121729 Ry
     estimated scf accuracy    <       0.00000003 Ry

     iteration #  6     ecut=    55.00 Ry     beta=0.70
     Davidson diagonalization with overlap
     ethr =  3.15E-10,  avg # of iterations =  2.0

     negative rho (up, down):  0.186E-04 0.000E+00

     total cpu time spent up to now is       33.4 secs

     End of self-consistent calculation

          k = 0.0000 0.0000 0.0000 (  7331 PWs)   bands (ev):

   -22.4919 -10.6021  -6.0251  -6.0251   0.3035   1.0417   1.2090   1.5613

          k = 0.0000 0.0888 0.0000 (  7327 PWs)   bands (ev):

   -22.3519 -10.4344  -6.5810  -6.3171   0.4940   1.2354   1.4049   1.7562

          k = 0.0000 0.1776 0.0000 (  7287 PWs)   bands (ev):

   -21.9332  -9.9352  -8.0122  -7.0227   1.0655   1.8158   1.9924   2.3404

          k = 0.0000 0.2665 0.0000 (  7231 PWs)   bands (ev):

   -21.2400  -9.8974  -9.1177  -7.8438   2.0167   2.7774   2.9716   3.3111

          k = 0.0000 0.3553 0.0000 (  7214 PWs)   bands (ev):

   -20.2803 -11.9277  -8.5734  -8.0141   2.6846   3.3416   4.1553   4.3420

          k = 0.0000 0.4441 0.0000 (  7178 PWs)   bands (ev):

   -19.0714 -13.9190  -9.1021  -6.7114   0.6053   4.6240   5.0902   5.8723

          k = 0.0000 0.5329 0.0000 (  7094 PWs)   bands (ev):

   -17.6864 -15.7129  -9.3771  -5.5373  -0.9946   4.5181   7.1139   7.9545

          k = 0.0769 0.1332 0.0000 (  7293 PWs)   bands (ev):

   -22.0726 -10.1009  -7.4901  -6.9014   0.8752   1.6225   1.7966   2.1457

          k = 0.0769 0.2221 0.0000 (  7214 PWs)   bands (ev):

   -21.5166  -9.4419  -9.0183  -7.7975   1.6372   2.3949   2.5800   2.9241

          k = 0.0769 0.3109 0.0000 (  7213 PWs)   bands (ev):

   -20.6901 -10.9049  -8.6456  -8.4779   2.7772   3.4700   3.7099   3.7550

          k = 0.0769 0.3997 0.0000 (  7185 PWs)   bands (ev):

   -19.6050 -12.8845  -9.3065  -7.2593   1.5503   4.2850   5.0978   5.3168

          k = 0.0769 0.4885 0.0000 (  7147 PWs)   bands (ev):

   -18.2916 -14.7801  -9.7211  -5.9435  -0.3441   5.1762   6.1900   6.9930

          k = 0.0769-0.5774 0.0000 (  7134 PWs)   bands (ev):

   -17.1403 -16.1321  -9.8619  -5.1912  -1.3006   5.1143   8.3097   8.4713

          k = 0.1538 0.2665 0.0000 (  7201 PWs)   bands (ev):

   -20.8274 -10.2658  -9.0053  -8.6342   2.5889   3.3568   3.5592   3.8958

          k = 0.1538 0.3553 0.0000 (  7213 PWs)   bands (ev):

   -19.8750 -11.8706 -10.0179  -7.5426   2.2089   3.9154   4.6949   4.9300

          k = 0.1538 0.4441 0.0000 (  7166 PWs)   bands (ev):

   -18.6787 -13.6756 -10.6506  -6.2455   0.3434   5.6034   6.3814   6.6920

          k = 0.1538-0.6218 0.0000 (  7157 PWs)   bands (ev):

   -17.3161 -15.3855 -10.9574  -5.0422  -1.1740   6.7233   7.6518   8.2494

          k = 0.2308 0.3997 0.0000 (  7185 PWs)   bands (ev):

   -18.8101 -12.9095 -11.3958  -6.3547   0.6541   5.4199   6.1639   6.4966

          k = 0.2308-0.6662 0.0000 (  7188 PWs)   bands (ev):

   -17.5329 -14.3048 -12.1775  -5.0297  -0.9051   7.2609   7.6768   8.4534

          k = 0.2308-0.5774 0.0000 (  7162 PWs)   bands (ev):

   -16.4240 -15.5084 -12.3956  -4.1733  -1.8436   8.1396   8.7368   9.2148

          k = 0.3077-0.6218 0.0000 (  7180 PWs)   bands (ev):

   -16.2594 -15.0017 -13.3128  -3.7264  -2.1832   7.7696   9.1203  10.0982

     the Fermi energy is    -3.1364 ev

!    total energy              =     -22.79121731 Ry
     Harris-Foulkes estimate   =     -22.79121731 Ry
     estimated scf accuracy    <          6.5E-10 Ry

     The total energy is the sum of the following terms:

     one-electron contribution =    -353.76063740 Ry
     hartree contribution      =     177.88984953 Ry
     xc contribution           =      -7.02467087 Ry
     ewald contribution        =     160.10424143 Ry
     smearing contrib. (-TS)   =      -0.00000000 Ry

     convergence has been achieved in   6 iterations

     Writing output data file graphene.save

     init_run     :      3.11s CPU      3.28s WALL (       1 calls)
     electrons    :     29.17s CPU     30.11s WALL (       1 calls)

     Called by init_run:
     wfcinit      :      1.08s CPU      1.14s WALL (       1 calls)
     potinit      :      0.91s CPU      0.94s WALL (       1 calls)

     Called by electrons:
     c_bands      :     20.07s CPU     20.65s WALL (       6 calls)
     sum_band     :      5.51s CPU      5.68s WALL (       6 calls)
     v_of_rho     :      1.76s CPU      1.84s WALL (       7 calls)
     newd         :      1.65s CPU      1.72s WALL (       7 calls)
     mix_rho      :      0.24s CPU      0.24s WALL (       6 calls)

     Called by c_bands:
     init_us_2    :      0.32s CPU      0.35s WALL (     273 calls)
     cegterg      :     19.63s CPU     20.15s WALL (     126 calls)

     Called by *egterg:
     h_psi        :     18.39s CPU     18.87s WALL (     764 calls)
     s_psi        :      0.26s CPU      0.26s WALL (     764 calls)
     g_psi        :      0.12s CPU      0.13s WALL (     617 calls)
     cdiaghg      :      0.30s CPU      0.30s WALL (     743 calls)

     Called by h_psi:
     add_vuspsi   :      0.27s CPU      0.27s WALL (     764 calls)

     General routines
     calbec       :      0.50s CPU      0.50s WALL (     890 calls)
     fft          :      1.66s CPU      1.78s WALL (     107 calls)
     ffts         :      0.05s CPU      0.05s WALL (      13 calls)
     fftw         :     13.92s CPU     14.34s WALL (    7704 calls)
     interpolate  :      0.29s CPU      0.30s WALL (      13 calls)
     davcio       :      0.10s CPU      0.11s WALL (     399 calls)

     Parallel routines
     fft_scatter  :      6.58s CPU      6.92s WALL (    7824 calls)

     PWSCF        :    32.55s CPU        33.68s WALL


   This run was terminated on:   2:10:37  26Jul2015            

=------------------------------------------------------------------------------=
   JOB DONE.
=------------------------------------------------------------------------------=
