
     Program PWSCF v.5.0.2 (svn rev. 9656) starts on 12Jul2015 at  2:46:13 

     This program is part of the open-source Quantum ESPRESSO suite
     for quantum simulation of materials; please cite
         "P. Giannozzi et al., J. Phys.:Condens. Matter 21 395502 (2009);
          URL http://www.quantum-espresso.org", 
     in publications or presentations arising from this work. More details at
     http://www.quantum-espresso.org/quote.php

     Parallel version (MPI), running on     4 processors
     R & G space division:  proc/nbgrp/npool/nimage =       4

     Current dimensions of program PWSCF are:
     Max number of different atomic species (ntypx) = 10
     Max number of k-points (npk) =  40000
     Max angular momentum in pseudopotentials (lmaxx) =  3
     Waiting for input...
     Reading input from standard input
               file Al.pbe-n-kjpaw_psl.0.1.UPF: wavefunction(s)  3S renormalized

     Subspace diagonalization in iterative solution of the eigenvalue problem:
     a serial algorithm will be used


     Parallelization info
     --------------------
     sticks:   dense  smooth     PW     G-vecs:    dense   smooth      PW
     Min         218     218     66                 4315     4315     722
     Max         220     220     67                 4316     4316     724
     Sum         877     877    265                17261    17261    2891



     bravais-lattice index     =            2
     lattice parameter (alat)  =       7.6300  a.u.
     unit-cell volume          =     111.0487 (a.u.)^3
     number of atoms/cell      =            1
     number of atomic types    =            1
     number of electrons       =         3.00
     number of Kohn-Sham states=            6
     kinetic-energy cutoff     =     110.0000  Ry
     charge density cutoff     =     440.0000  Ry
     convergence threshold     =      1.0E-07
     mixing beta               =       0.7000
     number of iterations used =            8  plain     mixing
     Exchange-correlation      =  SLA  PW   PBX  PBC ( 1 4 3 4 0)
     EXX-fraction              =        0.00

     celldm(1)=   7.630000  celldm(2)=   0.000000  celldm(3)=   0.000000
     celldm(4)=   0.000000  celldm(5)=   0.000000  celldm(6)=   0.000000

     crystal axes: (cart. coord. in units of alat)
               a(1) = (  -0.500000   0.000000   0.500000 )  
               a(2) = (   0.000000   0.500000   0.500000 )  
               a(3) = (  -0.500000   0.500000   0.000000 )  

     reciprocal axes: (cart. coord. in units 2 pi/alat)
               b(1) = ( -1.000000 -1.000000  1.000000 )  
               b(2) = (  1.000000  1.000000  1.000000 )  
               b(3) = ( -1.000000  1.000000 -1.000000 )  


     PseudoPot. # 1 for Al read from file:
     ./Al.pbe-n-kjpaw_psl.0.1.UPF
     MD5 check sum: 023d9faf819c76fc4df1f064efe7b7b2
     Pseudo is Projector augmented-wave + core cor, Zval =  3.0
     Generated using "atomic" code by A. Dal Corso  v.5.0.2 svn rev. 9415
     Shape of augmentation charge: PSQ
     Using radial grid of 1135 points,  4 beta functions with: 
                l(1) =   0
                l(2) =   0
                l(3) =   1
                l(4) =   1
     Q(r) pseudized with 0 coefficients 


     atomic species   valence    mass     pseudopotential
        Al             3.00    26.98154     Al( 1.00)

     48 Sym. Ops., with inversion, found



   Cartesian axes

     site n.     atom                  positions (alat units)
         1           Al  tau(   1) = (   0.0000000   0.0000000   0.0000000  )

     number of k points=    72  gaussian smearing, width (Ry)=  0.0030
                       cart. coord. in units 2pi/alat
        k(    1) = (   0.0000000   0.0000000   0.0000000), wk =   0.0011574
        k(    2) = (  -0.0833333   0.0833333  -0.0833333), wk =   0.0092593
        k(    3) = (  -0.1666667   0.1666667  -0.1666667), wk =   0.0092593
        k(    4) = (  -0.2500000   0.2500000  -0.2500000), wk =   0.0092593
        k(    5) = (  -0.3333333   0.3333333  -0.3333333), wk =   0.0092593
        k(    6) = (  -0.4166667   0.4166667  -0.4166667), wk =   0.0092593
        k(    7) = (   0.5000000  -0.5000000   0.5000000), wk =   0.0046296
        k(    8) = (   0.0000000   0.1666667   0.0000000), wk =   0.0069444
        k(    9) = (  -0.0833333   0.2500000  -0.0833333), wk =   0.0277778
        k(   10) = (  -0.1666667   0.3333333  -0.1666667), wk =   0.0277778
        k(   11) = (  -0.2500000   0.4166667  -0.2500000), wk =   0.0277778
        k(   12) = (  -0.3333333   0.5000000  -0.3333333), wk =   0.0277778
        k(   13) = (   0.5833333  -0.4166667   0.5833333), wk =   0.0277778
        k(   14) = (   0.5000000  -0.3333333   0.5000000), wk =   0.0277778
        k(   15) = (   0.4166667  -0.2500000   0.4166667), wk =   0.0277778
        k(   16) = (   0.3333333  -0.1666667   0.3333333), wk =   0.0277778
        k(   17) = (   0.2500000  -0.0833333   0.2500000), wk =   0.0277778
        k(   18) = (   0.1666667  -0.0000000   0.1666667), wk =   0.0138889
        k(   19) = (   0.0000000   0.3333333   0.0000000), wk =   0.0069444
        k(   20) = (  -0.0833333   0.4166667  -0.0833333), wk =   0.0277778
        k(   21) = (  -0.1666667   0.5000000  -0.1666667), wk =   0.0277778
        k(   22) = (  -0.2500000   0.5833333  -0.2500000), wk =   0.0277778
        k(   23) = (   0.6666667  -0.3333333   0.6666667), wk =   0.0277778
        k(   24) = (   0.5833333  -0.2500000   0.5833333), wk =   0.0277778
        k(   25) = (   0.5000000  -0.1666667   0.5000000), wk =   0.0277778
        k(   26) = (   0.4166667  -0.0833333   0.4166667), wk =   0.0277778
        k(   27) = (   0.3333333   0.0000000   0.3333333), wk =   0.0138889
        k(   28) = (   0.0000000   0.5000000   0.0000000), wk =   0.0069444
        k(   29) = (  -0.0833333   0.5833333  -0.0833333), wk =   0.0277778
        k(   30) = (  -0.1666667   0.6666667  -0.1666667), wk =   0.0277778
        k(   31) = (   0.7500000  -0.2500000   0.7500000), wk =   0.0277778
        k(   32) = (   0.6666667  -0.1666667   0.6666667), wk =   0.0277778
        k(   33) = (   0.5833333  -0.0833333   0.5833333), wk =   0.0277778
        k(   34) = (   0.5000000   0.0000000   0.5000000), wk =   0.0138889
        k(   35) = (   0.0000000   0.6666667   0.0000000), wk =   0.0069444
        k(   36) = (  -0.0833333   0.7500000  -0.0833333), wk =   0.0277778
        k(   37) = (   0.8333333  -0.1666667   0.8333333), wk =   0.0277778
        k(   38) = (   0.7500000  -0.0833333   0.7500000), wk =   0.0277778
        k(   39) = (   0.6666667  -0.0000000   0.6666667), wk =   0.0138889
        k(   40) = (   0.0000000   0.8333333   0.0000000), wk =   0.0069444
        k(   41) = (   0.9166667  -0.0833333   0.9166667), wk =   0.0277778
        k(   42) = (   0.8333333   0.0000000   0.8333333), wk =   0.0138889
        k(   43) = (   0.0000000  -1.0000000   0.0000000), wk =   0.0034722
        k(   44) = (  -0.1666667   0.3333333   0.0000000), wk =   0.0277778
        k(   45) = (  -0.2500000   0.4166667  -0.0833333), wk =   0.0555556
        k(   46) = (  -0.3333333   0.5000000  -0.1666667), wk =   0.0555556
        k(   47) = (   0.5833333  -0.4166667   0.7500000), wk =   0.0555556
        k(   48) = (   0.5000000  -0.3333333   0.6666667), wk =   0.0277778
        k(   49) = (  -0.1666667   0.5000000   0.0000000), wk =   0.0277778
        k(   50) = (  -0.2500000   0.5833333  -0.0833333), wk =   0.0555556
        k(   51) = (   0.6666667  -0.3333333   0.8333333), wk =   0.0555556
        k(   52) = (   0.5833333  -0.2500000   0.7500000), wk =   0.0555556
        k(   53) = (   0.5000000  -0.1666667   0.6666667), wk =   0.0555556
        k(   54) = (   0.4166667  -0.0833333   0.5833333), wk =   0.0555556
        k(   55) = (   0.3333333   0.0000000   0.5000000), wk =   0.0277778
        k(   56) = (  -0.1666667   0.6666667  -0.0000000), wk =   0.0277778
        k(   57) = (   0.7500000  -0.2500000   0.9166667), wk =   0.0555556
        k(   58) = (   0.6666667  -0.1666667   0.8333333), wk =   0.0555556
        k(   59) = (   0.5833333  -0.0833333   0.7500000), wk =   0.0555556
        k(   60) = (   0.5000000   0.0000000   0.6666667), wk =   0.0277778
        k(   61) = (   0.8333333  -0.1666667   1.0000000), wk =   0.0277778
        k(   62) = (   0.7500000  -0.0833333   0.9166667), wk =   0.0555556
        k(   63) = (   0.6666667   0.0000000   0.8333333), wk =   0.0277778
        k(   64) = (  -0.1666667  -1.0000000  -0.0000000), wk =   0.0138889
        k(   65) = (   0.6666667  -0.3333333   1.0000000), wk =   0.0277778
        k(   66) = (   0.5833333  -0.2500000   0.9166667), wk =   0.0555556
        k(   67) = (   0.5000000  -0.1666667   0.8333333), wk =   0.0277778
        k(   68) = (   0.6666667  -0.1666667   1.0000000), wk =   0.0277778
        k(   69) = (   0.5833333  -0.0833333   0.9166667), wk =   0.0555556
        k(   70) = (   0.5000000   0.0000000   0.8333333), wk =   0.0277778
        k(   71) = (  -0.3333333  -1.0000000   0.0000000), wk =   0.0138889
        k(   72) = (  -0.5000000  -1.0000000   0.0000000), wk =   0.0069444

     Dense  grid:    17261 G-vectors     FFT dimensions: (  40,  40,  40)

     Largest allocated arrays     est. size (Mb)     dimensions
        Kohn-Sham Wavefunctions         0.05 Mb     (    554,    6)
        NL pseudopotentials             0.07 Mb     (    554,    8)
        Each V/rho on FFT grid          0.24 Mb     (  16000)
        Each G-vector array             0.03 Mb     (   4316)
        G-vector shells                 0.00 Mb     (    217)
     Largest temporary arrays     est. size (Mb)     dimensions
        Auxiliary wavefunctions         0.20 Mb     (    554,   24)
        Each subspace H/S matrix        0.01 Mb     (  24,  24)
        Each <psi_i|beta_j> matrix      0.00 Mb     (      8,    6)
        Arrays for rho mixing           1.95 Mb     (  16000,   8)

     Initial potential from superposition of free atoms

     starting charge    2.99771, renormalised to    3.00000
     Starting wfc are    4 randomized atomic wfcs
     Checking if some PAW data can be deallocated... 

     total cpu time spent up to now is        3.3 secs

     per-process dynamical memory:    10.4 Mb

     Self-consistent Calculation

     iteration #  1     ecut=   110.00 Ry     beta=0.70
     Davidson diagonalization with overlap
     ethr =  1.00E-02,  avg # of iterations =  5.2

     Threshold (ethr) on eigenvalues was too large:
     Diagonalizing with lowered threshold

     Davidson diagonalization with overlap
     ethr =  1.93E-04,  avg # of iterations =  1.9

     total cpu time spent up to now is       17.9 secs

     total energy              =     -39.50362015 Ry
     Harris-Foulkes estimate   =     -39.50498024 Ry
     estimated scf accuracy    <       0.00549352 Ry

     iteration #  2     ecut=   110.00 Ry     beta=0.70
     Davidson diagonalization with overlap
     ethr =  1.83E-04,  avg # of iterations =  1.0

     total cpu time spent up to now is       22.5 secs

     total energy              =     -39.50358009 Ry
     Harris-Foulkes estimate   =     -39.50368402 Ry
     estimated scf accuracy    <       0.00040233 Ry

     iteration #  3     ecut=   110.00 Ry     beta=0.70
     Davidson diagonalization with overlap
     ethr =  1.34E-05,  avg # of iterations =  1.8

     total cpu time spent up to now is       28.0 secs

     total energy              =     -39.50360014 Ry
     Harris-Foulkes estimate   =     -39.50360066 Ry
     estimated scf accuracy    <       0.00000131 Ry

     iteration #  4     ecut=   110.00 Ry     beta=0.70
     Davidson diagonalization with overlap
     ethr =  4.37E-08,  avg # of iterations =  3.1

     total cpu time spent up to now is       35.1 secs

     total energy              =     -39.50360118 Ry
     Harris-Foulkes estimate   =     -39.50360123 Ry
     estimated scf accuracy    <       0.00000011 Ry

     iteration #  5     ecut=   110.00 Ry     beta=0.70
     Davidson diagonalization with overlap
     ethr =  3.58E-09,  avg # of iterations =  1.1

     total cpu time spent up to now is       39.5 secs

     End of self-consistent calculation

          k = 0.0000 0.0000 0.0000 (  2109 PWs)   bands (ev):

    -3.2245  20.5706  20.5706  22.0485  22.0485  22.0485

          k =-0.0833 0.0833-0.0833 (  2130 PWs)   bands (ev):

    -3.0354  17.9499  19.9984  19.9984  22.7166  22.9087

          k =-0.1667 0.1667-0.1667 (  2151 PWs)   bands (ev):

    -2.4696  14.5848  19.2966  19.2966  22.5343  23.9715

          k =-0.2500 0.2500-0.2500 (  2160 PWs)   bands (ev):

    -1.5316  11.3781  18.8543  18.8543  22.3045  22.7043

          k =-0.3333 0.3333-0.3333 (  2151 PWs)   bands (ev):

    -0.2285   8.4296  18.7152  18.7152  21.3095  21.3095

          k =-0.4167 0.4167-0.4167 (  2156 PWs)   bands (ev):

     1.4299   5.7774  18.8894  18.8894  20.1910  20.1910

          k = 0.5000-0.5000 0.5000 (  2138 PWs)   bands (ev):

     3.3254   3.5498  19.3538  19.3538  19.4095  19.4095

          k = 0.0000 0.1667 0.0000 (  2141 PWs)   bands (ev):

    -2.9724  18.8492  18.8492  19.1415  21.4790  24.1348

          k =-0.0833 0.2500-0.0833 (  2152 PWs)   bands (ev):

    -2.5324  15.7910  17.9700  19.2497  21.8403  22.7595

          k =-0.1667 0.3333-0.1667 (  2153 PWs)   bands (ev):

    -1.7187  12.5538  17.3986  18.9133  20.7215  23.6305

          k =-0.2500 0.4167-0.2500 (  2155 PWs)   bands (ev):

    -0.5377   9.5285  17.1430  18.7082  19.1714  23.5888

          k =-0.3333 0.5000-0.3333 (  2154 PWs)   bands (ev):

     1.0016   6.7818  17.2064  17.8844  18.8289  22.3995

          k = 0.5833-0.4167 0.5833 (  2161 PWs)   bands (ev):

     2.8832   4.3487  16.9457  17.5901  19.2443  21.4978

          k = 0.5000-0.3333 0.5000 (  2157 PWs)   bands (ev):

     2.2205   5.1213  16.3329  18.2943  19.9886  20.9049

          k = 0.4167-0.2500 0.4167 (  2160 PWs)   bands (ev):

     0.4494   7.6621  16.0522  19.3123  20.6295  21.0496

          k = 0.3333-0.1667 0.3333 (  2147 PWs)   bands (ev):

    -0.9717  10.5011  16.1072  20.4890  20.8073  22.3988

          k = 0.2500-0.0833 0.2500 (  2144 PWs)   bands (ev):

    -2.0311  13.5848  16.5111  20.8989  22.2167  23.4485

          k = 0.1667-0.0000 0.1667 (  2151 PWs)   bands (ev):

    -2.7208  16.5604  17.5144  21.0604  22.3286  23.3289

          k = 0.0000 0.3333 0.0000 (  2145 PWs)   bands (ev):

    -2.2189  16.9588  16.9588  17.1096  20.2378  20.4239

          k =-0.0833 0.4167-0.0833 (  2158 PWs)   bands (ev):

    -1.5316  13.9812  16.2684  17.5715  18.4007  20.6422

          k =-0.1667 0.5000-0.1667 (  2151 PWs)   bands (ev):

    -0.4760  10.9384  15.8995  16.6259  17.5518  22.4555

          k =-0.2500 0.5833-0.2500 (  2150 PWs)   bands (ev):

     0.9396   8.1217  15.2335  15.8522  17.5781  24.7102

          k = 0.6667-0.3333 0.6667 (  2161 PWs)   bands (ev):

     2.7025   5.5950  14.1613  16.1270  17.9125  23.9263

          k = 0.5833-0.2500 0.5833 (  2166 PWs)   bands (ev):

     3.3636   4.8211  13.4286  16.7242  18.5792  23.2398

          k = 0.5000-0.1667 0.5000 (  2160 PWs)   bands (ev):

     1.4904   7.2285  13.0493  17.6431  19.5751  22.8561

          k = 0.4167-0.0833 0.4167 (  2157 PWs)   bands (ev):

    -0.0434   9.9015  13.0623  18.8784  20.8778  22.7532

          k = 0.3333 0.0000 0.3333 (  2149 PWs)   bands (ev):

    -1.2203  12.4231  13.8451  20.4075  22.4304  22.5235

          k = 0.0000 0.5000 0.0000 (  2141 PWs)   bands (ev):

    -0.9719  15.4196  15.4639  15.4639  16.2032  18.9621

          k =-0.0833 0.5833-0.0833 (  2157 PWs)   bands (ev):

    -0.0441  12.5970  14.3355  14.9837  16.2344  19.4705

          k =-0.1667 0.6667-0.1667 (  2154 PWs)   bands (ev):

     1.2438   9.7690  12.7986  14.8264  16.4006  21.4894

          k = 0.7500-0.2500 0.7500 (  2166 PWs)   bands (ev):

     2.8790   7.1759  11.5969  14.9918  16.6785  24.0481

          k = 0.6667-0.1667 0.6667 (  2156 PWs)   bands (ev):

     4.7224   4.9976  10.7506  15.4801  17.2585  25.8763

          k = 0.5833-0.0833 0.5833 (  2164 PWs)   bands (ev):

     2.8854   7.0950  10.3087  16.2918  18.1681  25.3995

          k = 0.5000 0.0000 0.5000 (  2151 PWs)   bands (ev):

     1.2460   9.1719  10.6933  17.4262  19.3928  25.5842

          k = 0.0000 0.6667 0.0000 (  2181 PWs)   bands (ev):

     0.7539  12.3190  14.1891  14.3934  14.3934  17.9155

          k =-0.0833 0.7500-0.0833 (  2156 PWs)   bands (ev):

     1.9099  10.6246  11.7024  14.1268  15.2916  18.6299

          k = 0.8333-0.1667 0.8333 (  2161 PWs)   bands (ev):

     3.4070   8.9615   9.4459  14.1829  15.6896  20.8783

          k = 0.7500-0.0833 0.7500 (  2171 PWs)   bands (ev):

     5.1914   6.6881   8.4362  14.5620  16.2101  23.6796

          k = 0.6667-0.0000 0.6667 (  2165 PWs)   bands (ev):

     4.6194   6.8514   8.3308  15.2646  17.0314  26.6344

          k = 0.0000 0.8333 0.0000 (  2160 PWs)   bands (ev):

     2.9260   8.8423  13.4451  13.7512  13.7512  17.2459

          k = 0.9167-0.0833 0.9167 (  2169 PWs)   bands (ev):

     4.2506   7.4269  11.2253  13.6986  14.8166  18.1937

          k = 0.8333 0.0000 0.8333 (  2173 PWs)   bands (ev):

     5.4624   6.8062   8.8771  13.9686  15.4494  20.6701

          k = 0.0000-1.0000 0.0000 (  2200 PWs)   bands (ev):

     5.0002   6.3321  13.1964  13.5373  13.5373  17.0164

          k =-0.1667 0.3333 0.0000 (  2162 PWs)   bands (ev):

    -1.9686  14.5061  15.6868  19.9450  20.5420  21.8021

          k =-0.2500 0.4167-0.0833 (  2156 PWs)   bands (ev):

    -1.0338  11.7507  14.8001  18.7786  20.1332  23.0953

          k =-0.3333 0.5000-0.1667 (  2159 PWs)   bands (ev):

     0.2646   8.8704  14.5872  17.2910  20.1111  22.8366

          k = 0.5833-0.4167 0.7500 (  2160 PWs)   bands (ev):

     1.9164   6.2435  14.7367  16.1285  20.3232  21.7272

          k = 0.5000-0.3333 0.6667 (  2168 PWs)   bands (ev):

     3.7923   4.0401  15.0908  15.4368  20.7015  21.0386

          k =-0.1667 0.5000 0.0000 (  2158 PWs)   bands (ev):

    -0.7238  12.8899  14.1572  16.4598  18.4379  20.5559

          k =-0.2500 0.5833-0.0833 (  2158 PWs)   bands (ev):

     0.4485  10.3574  13.4378  14.8456  18.8963  22.0853

          k = 0.6667-0.3333 0.8333 (  2171 PWs)   bands (ev):

     1.9754   7.6943  13.2599  13.7220  19.1221  24.0398

          k = 0.5833-0.2500 0.7500 (  2174 PWs)   bands (ev):

     3.8364   5.2978  12.4908  13.9076  19.5761  23.3880

          k = 0.5000-0.1667 0.6667 (  2174 PWs)   bands (ev):

     3.1850   6.0470  11.8972  14.6219  20.3273  22.7765

          k = 0.4167-0.0833 0.5833 (  2167 PWs)   bands (ev):

     1.4288   8.5005  11.6913  15.6859  21.3621  22.4139

          k = 0.3333 0.0000 0.5000 (  2156 PWs)   bands (ev):

     0.0181  10.7984  12.2834  17.0789  21.8206  22.5593

          k =-0.1667 0.6667-0.0000 (  2158 PWs)   bands (ev):

     0.9990  11.7297  12.4511  13.1917  17.3115  19.5698

          k = 0.7500-0.2500 0.9167 (  2166 PWs)   bands (ev):

     2.3954   9.4133  11.1032  12.6254  18.0112  21.3140

          k = 0.6667-0.1667 0.8333 (  2173 PWs)   bands (ev):

     4.1244   6.9821  10.0405  12.8321  18.4724  23.9039

          k = 0.5833-0.0833 0.7500 (  2173 PWs)   bands (ev):

     4.7902   6.1599   9.3635  13.4375  19.1572  25.4086

          k = 0.5000 0.0000 0.6667 (  2171 PWs)   bands (ev):

     2.9446   8.0110   9.5143  14.3945  20.1334  24.5971

          k = 0.8333-0.1667 1.0000 (  2165 PWs)   bands (ev):

     3.1668   9.0689  11.0319  12.4323  16.6280  18.9412

          k = 0.7500-0.0833 0.9167 (  2171 PWs)   bands (ev):

     4.7240   7.8764   9.0020  12.1450  17.5597  20.9093

          k = 0.6667 0.0000 0.8333 (  2172 PWs)   bands (ev):

     6.1565   6.6757   7.6520  12.5982  18.2507  23.7366

          k =-0.1667-1.0000-0.0000 (  2162 PWs)   bands (ev):

     5.2313   6.5747  10.7990  12.2013  16.3995  18.7262

          k = 0.6667-0.3333 1.0000 (  2166 PWs)   bands (ev):

     1.7319   9.6369  11.1070  13.3193  20.7666  22.4126

          k = 0.5833-0.2500 0.9167 (  2174 PWs)   bands (ev):

     3.3611   7.5611  10.7177  12.1444  21.5669  23.0164

          k = 0.5000-0.1667 0.8333 (  2176 PWs)   bands (ev):

     5.1857   5.4634  10.9349  11.5266  21.9717  22.4596

          k = 0.6667-0.1667 1.0000 (  2178 PWs)   bands (ev):

     3.8865   8.9400   9.6487  10.6365  20.1010  21.9111

          k = 0.5833-0.0833 0.9167 (  2177 PWs)   bands (ev):

     5.6628   7.0815   8.8406  10.4057  21.1586  24.0201

          k = 0.5000 0.0000 0.8333 (  2179 PWs)   bands (ev):

     5.0756   7.3151   8.7681  11.0562  21.9787  23.9881

          k =-0.3333-1.0000 0.0000 (  2174 PWs)   bands (ev):

     5.9251   7.2822   8.7077  10.2969  19.8764  21.7259

          k =-0.5000-1.0000 0.0000 (  2180 PWs)   bands (ev):

     7.0833   7.0833   8.0984   9.0523  23.7744  23.7745

     the Fermi energy is     7.8322 ev

!    total energy              =     -39.50360118 Ry
     Harris-Foulkes estimate   =     -39.50360119 Ry
     estimated scf accuracy    <       0.00000004 Ry

     total all-electron energy =      -485.646383 Ry

     The total energy is the sum of the following terms:

     one-electron contribution =       3.16828749 Ry
     hartree contribution      =       0.00582965 Ry
     xc contribution           =      -3.03183373 Ry
     ewald contribution        =      -5.40809419 Ry
     one-center paw contrib.   =     -34.23777592 Ry
     smearing contrib. (-TS)   =      -0.00001449 Ry

     convergence has been achieved in   5 iterations

     Writing output data file Al.save

     init_run     :      1.42s CPU      2.67s WALL (       1 calls)
     electrons    :     18.63s CPU     36.29s WALL (       1 calls)

     Called by init_run:
     wfcinit      :      0.89s CPU      1.84s WALL (       1 calls)
     potinit      :      0.11s CPU      0.18s WALL (       1 calls)

     Called by electrons:
     c_bands      :     14.66s CPU     28.35s WALL (       6 calls)
     sum_band     :      3.32s CPU      6.83s WALL (       6 calls)
     v_of_rho     :      0.22s CPU      0.38s WALL (       6 calls)
     newd         :      0.06s CPU      0.11s WALL (       6 calls)
     mix_rho      :      0.06s CPU      0.10s WALL (       6 calls)

     Called by c_bands:
     init_us_2    :      0.32s CPU      0.40s WALL (     936 calls)
     cegterg      :     14.33s CPU     27.94s WALL (     432 calls)

     Called by *egterg:
     h_psi        :     13.76s CPU     27.04s WALL (    1525 calls)
     s_psi        :      0.07s CPU      0.09s WALL (    1525 calls)
     g_psi        :      0.06s CPU      0.10s WALL (    1021 calls)
     cdiaghg      :      0.44s CPU      0.76s WALL (    1381 calls)

     Called by h_psi:
     add_vuspsi   :      0.06s CPU      0.11s WALL (    1525 calls)

     General routines
     calbec       :      0.35s CPU      0.98s WALL (    1957 calls)
     fft          :      0.12s CPU      0.34s WALL (      80 calls)
     fftw         :     15.17s CPU     30.51s WALL (   16688 calls)
     davcio       :      0.04s CPU      0.07s WALL (    1368 calls)

     Parallel routines
     fft_scatter  :      5.06s CPU     18.63s WALL (   16768 calls)

     PAW routines
     PAW_pot      :      0.37s CPU      0.58s WALL (       6 calls)
     PAW_ddot     :      0.04s CPU      0.06s WALL (      22 calls)
     PAW_symme    :      0.00s CPU      0.00s WALL (      12 calls)

     PWSCF        :    20.87s CPU        40.02s WALL


   This run was terminated on:   2:46:53  12Jul2015            

=------------------------------------------------------------------------------=
   JOB DONE.
=------------------------------------------------------------------------------=
