
     Program PWSCF v.5.0.2 (svn rev. 9656) starts on 12Jul2015 at  1:32:34 

     This program is part of the open-source Quantum ESPRESSO suite
     for quantum simulation of materials; please cite
         "P. Giannozzi et al., J. Phys.:Condens. Matter 21 395502 (2009);
          URL http://www.quantum-espresso.org", 
     in publications or presentations arising from this work. More details at
     http://www.quantum-espresso.org/quote.php

     Parallel version (MPI), running on     4 processors
     R & G space division:  proc/nbgrp/npool/nimage =       4

     Current dimensions of program PWSCF are:
     Max number of different atomic species (ntypx) = 10
     Max number of k-points (npk) =  40000
     Max angular momentum in pseudopotentials (lmaxx) =  3
     Waiting for input...
     Reading input from standard input
               file Al.pbe-n-kjpaw_psl.0.1.UPF: wavefunction(s)  3S renormalized

     Subspace diagonalization in iterative solution of the eigenvalue problem:
     a serial algorithm will be used


     Parallelization info
     --------------------
     sticks:   dense  smooth     PW     G-vecs:    dense   smooth      PW
     Min         118     118     37                 1712     1712     309
     Max         119     119     38                 1715     1715     312
     Sum         475     475    151                 6855     6855    1243



     bravais-lattice index     =            2
     lattice parameter (alat)  =       7.5800  a.u.
     unit-cell volume          =     108.8799 (a.u.)^3
     number of atoms/cell      =            1
     number of atomic types    =            1
     number of electrons       =         3.00
     number of Kohn-Sham states=            6
     kinetic-energy cutoff     =      60.0000  Ry
     charge density cutoff     =     240.0000  Ry
     convergence threshold     =      1.0E-07
     mixing beta               =       0.7000
     number of iterations used =            8  plain     mixing
     Exchange-correlation      =  SLA  PW   PBX  PBC ( 1 4 3 4 0)
     EXX-fraction              =        0.00

     celldm(1)=   7.580000  celldm(2)=   0.000000  celldm(3)=   0.000000
     celldm(4)=   0.000000  celldm(5)=   0.000000  celldm(6)=   0.000000

     crystal axes: (cart. coord. in units of alat)
               a(1) = (  -0.500000   0.000000   0.500000 )  
               a(2) = (   0.000000   0.500000   0.500000 )  
               a(3) = (  -0.500000   0.500000   0.000000 )  

     reciprocal axes: (cart. coord. in units 2 pi/alat)
               b(1) = ( -1.000000 -1.000000  1.000000 )  
               b(2) = (  1.000000  1.000000  1.000000 )  
               b(3) = ( -1.000000  1.000000 -1.000000 )  


     PseudoPot. # 1 for Al read from file:
     ./Al.pbe-n-kjpaw_psl.0.1.UPF
     MD5 check sum: 023d9faf819c76fc4df1f064efe7b7b2
     Pseudo is Projector augmented-wave + core cor, Zval =  3.0
     Generated using "atomic" code by A. Dal Corso  v.5.0.2 svn rev. 9415
     Shape of augmentation charge: PSQ
     Using radial grid of 1135 points,  4 beta functions with: 
                l(1) =   0
                l(2) =   0
                l(3) =   1
                l(4) =   1
     Q(r) pseudized with 0 coefficients 


     atomic species   valence    mass     pseudopotential
        Al             3.00    26.98154     Al( 1.00)

     48 Sym. Ops., with inversion, found



   Cartesian axes

     site n.     atom                  positions (alat units)
         1           Al  tau(   1) = (   0.0000000   0.0000000   0.0000000  )

     number of k points=    84  gaussian smearing, width (Ry)=  0.0030
                       cart. coord. in units 2pi/alat
        k(    1) = (   0.0000000   0.0000000   0.0000000), wk =   0.0009103
        k(    2) = (  -0.0769231   0.0769231  -0.0769231), wk =   0.0072827
        k(    3) = (  -0.1538462   0.1538462  -0.1538462), wk =   0.0072827
        k(    4) = (  -0.2307692   0.2307692  -0.2307692), wk =   0.0072827
        k(    5) = (  -0.3076923   0.3076923  -0.3076923), wk =   0.0072827
        k(    6) = (  -0.3846154   0.3846154  -0.3846154), wk =   0.0072827
        k(    7) = (  -0.4615385   0.4615385  -0.4615385), wk =   0.0072827
        k(    8) = (   0.0000000   0.1538462   0.0000000), wk =   0.0054620
        k(    9) = (  -0.0769231   0.2307692  -0.0769231), wk =   0.0218480
        k(   10) = (  -0.1538462   0.3076923  -0.1538462), wk =   0.0218480
        k(   11) = (  -0.2307692   0.3846154  -0.2307692), wk =   0.0218480
        k(   12) = (  -0.3076923   0.4615385  -0.3076923), wk =   0.0218480
        k(   13) = (  -0.3846154   0.5384615  -0.3846154), wk =   0.0218480
        k(   14) = (   0.5384615  -0.3846154   0.5384615), wk =   0.0218480
        k(   15) = (   0.4615385  -0.3076923   0.4615385), wk =   0.0218480
        k(   16) = (   0.3846154  -0.2307692   0.3846154), wk =   0.0218480
        k(   17) = (   0.3076923  -0.1538462   0.3076923), wk =   0.0218480
        k(   18) = (   0.2307692  -0.0769231   0.2307692), wk =   0.0218480
        k(   19) = (   0.1538462   0.0000000   0.1538462), wk =   0.0109240
        k(   20) = (   0.0000000   0.3076923   0.0000000), wk =   0.0054620
        k(   21) = (  -0.0769231   0.3846154  -0.0769231), wk =   0.0218480
        k(   22) = (  -0.1538462   0.4615385  -0.1538462), wk =   0.0218480
        k(   23) = (  -0.2307692   0.5384615  -0.2307692), wk =   0.0218480
        k(   24) = (  -0.3076923   0.6153846  -0.3076923), wk =   0.0218480
        k(   25) = (   0.6153846  -0.3076923   0.6153846), wk =   0.0218480
        k(   26) = (   0.5384615  -0.2307692   0.5384615), wk =   0.0218480
        k(   27) = (   0.4615385  -0.1538462   0.4615385), wk =   0.0218480
        k(   28) = (   0.3846154  -0.0769231   0.3846154), wk =   0.0218480
        k(   29) = (   0.3076923   0.0000000   0.3076923), wk =   0.0109240
        k(   30) = (   0.0000000   0.4615385   0.0000000), wk =   0.0054620
        k(   31) = (  -0.0769231   0.5384615  -0.0769231), wk =   0.0218480
        k(   32) = (  -0.1538462   0.6153846  -0.1538462), wk =   0.0218480
        k(   33) = (  -0.2307692   0.6923077  -0.2307692), wk =   0.0218480
        k(   34) = (   0.6923077  -0.2307692   0.6923077), wk =   0.0218480
        k(   35) = (   0.6153846  -0.1538462   0.6153846), wk =   0.0218480
        k(   36) = (   0.5384615  -0.0769231   0.5384615), wk =   0.0218480
        k(   37) = (   0.4615385   0.0000000   0.4615385), wk =   0.0109240
        k(   38) = (   0.0000000   0.6153846   0.0000000), wk =   0.0054620
        k(   39) = (  -0.0769231   0.6923077  -0.0769231), wk =   0.0218480
        k(   40) = (  -0.1538462   0.7692308  -0.1538462), wk =   0.0218480
        k(   41) = (   0.7692308  -0.1538462   0.7692308), wk =   0.0218480
        k(   42) = (   0.6923077  -0.0769231   0.6923077), wk =   0.0218480
        k(   43) = (   0.6153846   0.0000000   0.6153846), wk =   0.0109240
        k(   44) = (   0.0000000   0.7692308   0.0000000), wk =   0.0054620
        k(   45) = (  -0.0769231   0.8461538  -0.0769231), wk =   0.0218480
        k(   46) = (   0.8461538  -0.0769231   0.8461538), wk =   0.0218480
        k(   47) = (   0.7692308   0.0000000   0.7692308), wk =   0.0109240
        k(   48) = (   0.0000000   0.9230769   0.0000000), wk =   0.0054620
        k(   49) = (   0.9230769   0.0000000   0.9230769), wk =   0.0109240
        k(   50) = (  -0.1538462   0.3076923   0.0000000), wk =   0.0218480
        k(   51) = (  -0.2307692   0.3846154  -0.0769231), wk =   0.0436959
        k(   52) = (  -0.3076923   0.4615385  -0.1538462), wk =   0.0436959
        k(   53) = (  -0.3846154   0.5384615  -0.2307692), wk =   0.0436959
        k(   54) = (   0.5384615  -0.3846154   0.6923077), wk =   0.0436959
        k(   55) = (  -0.1538462   0.4615385   0.0000000), wk =   0.0218480
        k(   56) = (  -0.2307692   0.5384615  -0.0769231), wk =   0.0436959
        k(   57) = (  -0.3076923   0.6153846  -0.1538462), wk =   0.0436959
        k(   58) = (   0.6153846  -0.3076923   0.7692308), wk =   0.0436959
        k(   59) = (   0.5384615  -0.2307692   0.6923077), wk =   0.0436959
        k(   60) = (   0.4615385  -0.1538462   0.6153846), wk =   0.0436959
        k(   61) = (   0.3846154  -0.0769231   0.5384615), wk =   0.0436959
        k(   62) = (   0.3076923   0.0000000   0.4615385), wk =   0.0218480
        k(   63) = (  -0.1538462   0.6153846   0.0000000), wk =   0.0218480
        k(   64) = (  -0.2307692   0.6923077  -0.0769231), wk =   0.0436959
        k(   65) = (   0.6923077  -0.2307692   0.8461538), wk =   0.0436959
        k(   66) = (   0.6153846  -0.1538462   0.7692308), wk =   0.0436959
        k(   67) = (   0.5384615  -0.0769231   0.6923077), wk =   0.0436959
        k(   68) = (   0.4615385   0.0000000   0.6153846), wk =   0.0218480
        k(   69) = (  -0.1538462   0.7692308   0.0000000), wk =   0.0218480
        k(   70) = (   0.7692308  -0.1538462   0.9230769), wk =   0.0436959
        k(   71) = (   0.6923077  -0.0769231   0.8461538), wk =   0.0436959
        k(   72) = (   0.6153846   0.0000000   0.7692308), wk =   0.0218480
        k(   73) = (   0.8461538  -0.0769231   1.0000000), wk =   0.0218480
        k(   74) = (   0.7692308   0.0000000   0.9230769), wk =   0.0218480
        k(   75) = (  -0.3076923   0.6153846   0.0000000), wk =   0.0218480
        k(   76) = (   0.6153846  -0.3076923   0.9230769), wk =   0.0436959
        k(   77) = (   0.5384615  -0.2307692   0.8461538), wk =   0.0436959
        k(   78) = (   0.6923077  -0.2307692   1.0000000), wk =   0.0218480
        k(   79) = (   0.6153846  -0.1538462   0.9230769), wk =   0.0436959
        k(   80) = (   0.5384615  -0.0769231   0.8461538), wk =   0.0436959
        k(   81) = (   0.4615385   0.0000000   0.7692308), wk =   0.0218480
        k(   82) = (   0.6923077  -0.0769231   1.0000000), wk =   0.0218480
        k(   83) = (   0.6153846   0.0000000   0.9230769), wk =   0.0218480
        k(   84) = (   0.5384615  -0.0769231   1.0000000), wk =   0.0218480

     Dense  grid:     6855 G-vectors     FFT dimensions: (  27,  27,  27)

     Largest allocated arrays     est. size (Mb)     dimensions
        Kohn-Sham Wavefunctions         0.02 Mb     (    224,    6)
        NL pseudopotentials             0.03 Mb     (    224,    8)
        Each V/rho on FFT grid          0.08 Mb     (   5103)
        Each G-vector array             0.01 Mb     (   1715)
        G-vector shells                 0.00 Mb     (    117)
     Largest temporary arrays     est. size (Mb)     dimensions
        Auxiliary wavefunctions         0.08 Mb     (    224,   24)
        Each subspace H/S matrix        0.01 Mb     (  24,  24)
        Each <psi_i|beta_j> matrix      0.00 Mb     (      8,    6)
        Arrays for rho mixing           0.62 Mb     (   5103,   8)

     Initial potential from superposition of free atoms

     starting charge    2.99771, renormalised to    3.00000
     Starting wfc are    4 randomized atomic wfcs
     Checking if some PAW data can be deallocated... 

     total cpu time spent up to now is        1.1 secs

     per-process dynamical memory:     9.0 Mb

     Self-consistent Calculation

     iteration #  1     ecut=    60.00 Ry     beta=0.70
     Davidson diagonalization with overlap
     ethr =  1.00E-02,  avg # of iterations =  4.8

     Threshold (ethr) on eigenvalues was too large:
     Diagonalizing with lowered threshold

     Davidson diagonalization with overlap
     ethr =  1.97E-04,  avg # of iterations =  2.1

     total cpu time spent up to now is        3.6 secs

     total energy              =     -39.50261349 Ry
     Harris-Foulkes estimate   =     -39.50399238 Ry
     estimated scf accuracy    <       0.00562240 Ry

     iteration #  2     ecut=    60.00 Ry     beta=0.70
     Davidson diagonalization with overlap
     ethr =  1.87E-04,  avg # of iterations =  1.0

     total cpu time spent up to now is        4.5 secs

     total energy              =     -39.50257236 Ry
     Harris-Foulkes estimate   =     -39.50267844 Ry
     estimated scf accuracy    <       0.00041122 Ry

     iteration #  3     ecut=    60.00 Ry     beta=0.70
     Davidson diagonalization with overlap
     ethr =  1.37E-05,  avg # of iterations =  2.0

     total cpu time spent up to now is        5.4 secs

     total energy              =     -39.50259165 Ry
     Harris-Foulkes estimate   =     -39.50259216 Ry
     estimated scf accuracy    <       0.00000121 Ry

     iteration #  4     ecut=    60.00 Ry     beta=0.70
     Davidson diagonalization with overlap
     ethr =  4.03E-08,  avg # of iterations =  3.1

     total cpu time spent up to now is        6.5 secs

     End of self-consistent calculation

          k = 0.0000 0.0000 0.0000 (   869 PWs)   bands (ev):

    -3.1552  20.8879  20.8879  22.5156  22.5157  22.5157

          k =-0.0769 0.0769-0.0769 (   875 PWs)   bands (ev):

    -2.9920  18.5288  20.3999  20.3999  23.1341  23.2561

          k =-0.1538 0.1538-0.1538 (   875 PWs)   bands (ev):

    -2.5034  15.3854  19.7395  19.7395  22.9819  24.4101

          k =-0.2308 0.2308-0.2308 (   872 PWs)   bands (ev):

    -1.6928  12.3524  19.2808  19.2808  22.7394  23.4566

          k =-0.3077 0.3077-0.3077 (   854 PWs)   bands (ev):

    -0.5656   9.5301  19.0760  19.0760  22.0968  22.0968

          k =-0.3846 0.3846-0.3846 (   857 PWs)   bands (ev):

     0.8704   6.9550  19.1377  19.1377  20.9564  20.9565

          k =-0.4615 0.4615-0.4615 (   853 PWs)   bands (ev):

     2.6027   4.6513  19.4698  19.4698  20.0795  20.0795

          k = 0.0000 0.1538 0.0000 (   881 PWs)   bands (ev):

    -2.9376  19.3513  19.3513  19.5966  22.0172  24.3701

          k =-0.0769 0.2308-0.0769 (   875 PWs)   bands (ev):

    -2.5576  16.4997  18.5154  19.7245  22.3380  23.5650

          k =-0.1538 0.3077-0.1538 (   867 PWs)   bands (ev):

    -1.8545  13.4516  17.9381  19.4088  21.6766  23.8946

          k =-0.2308 0.3846-0.2308 (   856 PWs)   bands (ev):

    -0.8332  10.5687  17.6300  19.1620  20.1729  24.2279

          k =-0.3077 0.4615-0.3077 (   849 PWs)   bands (ev):

     0.4994   7.9158  17.5947  18.8340  19.2296  23.0375

          k =-0.3846 0.5385-0.3846 (   850 PWs)   bands (ev):

     2.1335   5.5229  17.8343  17.8766  19.4587  22.0833

          k = 0.5385-0.3846 0.5385 (   851 PWs)   bands (ev):

     3.3665   4.0995  17.1646  18.3502  20.0027  21.3902

          k = 0.4615-0.3077 0.4615 (   856 PWs)   bands (ev):

     1.5563   6.2892  16.7336  19.1423  20.8266  20.9654

          k = 0.3846-0.2308 0.3846 (   859 PWs)   bands (ev):

     0.0212   8.7699  16.5877  20.2014  20.8136  21.9150

          k = 0.3077-0.1538 0.3077 (   863 PWs)   bands (ev):

    -1.2086  11.4982  16.7294  20.8828  21.5528  23.2233

          k = 0.2308-0.0769 0.2308 (   863 PWs)   bands (ev):

    -2.1245  14.4222  17.1718  21.1927  22.9689  23.7862

          k = 0.1538 0.0000 0.1538 (   871 PWs)   bands (ev):

    -2.7203  17.2079  18.1466  21.3111  22.7763  23.6842

          k = 0.0000 0.3077 0.0000 (   869 PWs)   bands (ev):

    -2.2867  17.5582  17.5582  17.6748  20.8977  21.4337

          k =-0.0769 0.3846-0.0769 (   863 PWs)   bands (ev):

    -1.6928  14.7512  16.8751  18.1260  19.5362  21.1683

          k =-0.1538 0.4615-0.1538 (   861 PWs)   bands (ev):

    -0.7798  11.8662  16.4676  17.7338  18.1921  22.7316

          k =-0.2308 0.5385-0.2308 (   858 PWs)   bands (ev):

     0.4459   9.1599  16.3362  16.4244  18.0710  24.7578

          k =-0.3077 0.6154-0.3077 (   857 PWs)   bands (ev):

     1.9754   6.6928  15.3194  16.4814  18.2627  24.3537

          k = 0.6154-0.3077 0.6154 (   851 PWs)   bands (ev):

     3.7747   4.5153  14.4965  16.9041  18.7407  23.5844

          k = 0.5385-0.2308 0.5385 (   847 PWs)   bands (ev):

     2.5514   5.9229  13.9681  17.6046  19.5063  23.0740

          k = 0.4615-0.1538 0.4615 (   856 PWs)   bands (ev):

     0.9230   8.2890  13.7467  18.5816  20.5491  22.8224

          k = 0.3846-0.0769 0.3846 (   857 PWs)   bands (ev):

    -0.4054  10.8626  13.8719  19.8280  21.8447  22.7935

          k = 0.3077 0.0000 0.3077 (   853 PWs)   bands (ev):

    -1.4236  13.2550  14.6974  21.3155  22.5759  23.3342

          k = 0.0000 0.4615 0.0000 (   849 PWs)   bands (ev):

    -1.2087  16.0168  16.0919  16.0919  17.4602  19.6741

          k =-0.0769 0.5385-0.0769 (   854 PWs)   bands (ev):

    -0.4058  13.3637  15.5875  15.6566  16.8040  20.0217

          k =-0.1538 0.6154-0.1538 (   851 PWs)   bands (ev):

     0.7101  10.6609  14.1543  15.3608  16.9331  21.7433

          k =-0.2308 0.6923-0.2308 (   856 PWs)   bands (ev):

     2.1303   8.1441  12.9298  15.4116  17.0996  24.0115

          k = 0.6923-0.2308 0.6923 (   852 PWs)   bands (ev):

     3.8373   5.8773  11.9994  15.7401  17.5088  26.0364

          k = 0.6154-0.1538 0.6154 (   852 PWs)   bands (ev):

     3.8455   5.8522  11.3810  16.3468  18.2006  25.4514

          k = 0.5385-0.0769 0.5385 (   854 PWs)   bands (ev):

     2.1333   8.0483  11.1256  17.2322  19.1747  25.1063

          k = 0.4615 0.0000 0.4615 (   853 PWs)   bands (ev):

     0.7112  10.0529  11.6333  18.3948  20.4092  24.6650

          k = 0.0000 0.6154 0.0000 (   853 PWs)   bands (ev):

     0.2857  13.7449  14.7457  14.9876  14.9876  18.6157

          k =-0.0769 0.6923-0.0769 (   851 PWs)   bands (ev):

     1.2892  12.0410  12.4456  14.6665  15.7843  19.1287

          k =-0.1538 0.7692-0.1538 (   850 PWs)   bands (ev):

     2.5951   9.8174  10.8286  14.6231  16.1158  21.0441

          k = 0.7692-0.1538 0.7692 (   851 PWs)   bands (ev):

     4.1837   7.5212   9.7785  14.8574  16.4922  23.5220

          k = 0.6923-0.0769 0.6923 (   853 PWs)   bands (ev):

     5.4085   6.0513   9.1037  15.3698  17.1129  26.2090

          k = 0.6154 0.0000 0.6154 (   858 PWs)   bands (ev):

     3.6421   7.6519   9.2095  16.1613  18.0112  27.8020

          k = 0.0000 0.7692 0.0000 (   850 PWs)   bands (ev):

     2.1770  10.3599  13.8906  14.2514  14.2514  17.8560

          k =-0.0769 0.8462-0.0769 (   847 PWs)   bands (ev):

     3.3593   8.9101  11.7861  14.1142  15.1723  18.5672

          k = 0.8462-0.0769 0.8462 (   847 PWs)   bands (ev):

     4.7884   7.7964   9.5069  14.2546  15.7010  20.6840

          k = 0.7692 0.0000 0.7692 (   852 PWs)   bands (ev):

     6.0551   7.1021   7.7498  14.6728  16.2865  23.3538

          k = 0.0000 0.9231 0.0000 (   846 PWs)   bands (ev):

     4.3812   7.4063  13.4614  13.8835  13.8835  17.4617

          k = 0.9231 0.0000 0.9231 (   844 PWs)   bands (ev):

     5.2584   6.6390  11.5831  13.9302  14.9675  18.3761

          k =-0.1538 0.3077 0.0000 (   867 PWs)   bands (ev):

    -2.0705  15.2472  16.4230  20.2951  21.5225  22.2712

          k =-0.2308 0.3846-0.0769 (   859 PWs)   bands (ev):

    -1.2624  12.6498  15.5328  19.8488  20.4639  23.3770

          k =-0.3077 0.4615-0.1538 (   855 PWs)   bands (ev):

    -0.1388   9.8989  15.2466  18.3865  20.3938  23.5514

          k =-0.3846 0.5385-0.2308 (   856 PWs)   bands (ev):

     1.2925   7.3501  15.2779  17.1978  20.5027  22.4282

          k = 0.5385-0.3846 0.6923 (   850 PWs)   bands (ev):

     3.0177   5.0608  15.5795  16.3175  20.8506  21.5472

          k =-0.1538 0.4615 0.0000 (   854 PWs)   bands (ev):

    -0.9941  13.6574  14.9325  17.6898  18.8289  21.0604

          k =-0.2308 0.5385-0.0769 (   853 PWs)   bands (ev):

     0.0207  11.2524  14.1809  16.1139  19.2337  22.3545

          k =-0.3077 0.6154-0.1538 (   854 PWs)   bands (ev):

     1.3443   8.6866  14.0253  14.8526  19.3794  24.2826

          k = 0.6154-0.3077 0.7692 (   854 PWs)   bands (ev):

     2.9652   6.3297  13.6425  14.4371  19.6938  23.8491

          k = 0.5385-0.2308 0.6923 (   850 PWs)   bands (ev):

     4.1849   4.9213  12.9697  14.9104  20.2601  23.1534

          k = 0.4615-0.1538 0.6154 (   853 PWs)   bands (ev):

     2.3944   7.0707  12.5629  15.7218  21.0860  22.6980

          k = 0.3846-0.0769 0.5385 (   857 PWs)   bands (ev):

     0.8698   9.4577  12.5051  16.8267  22.0990  22.4921

          k = 0.3077 0.0000 0.4615 (   851 PWs)   bands (ev):

    -0.3521  11.6553  13.1786  18.2100  21.9192  23.1716

          k =-0.1538 0.6154 0.0000 (   844 PWs)   bands (ev):

     0.4981  12.4577  13.5948  14.1918  17.6693  20.0583

          k =-0.2308 0.6923-0.0769 (   855 PWs)   bands (ev):

     1.7104  10.2411  12.4463  13.3597  18.2822  21.5275

          k = 0.6923-0.2308 0.8462 (   850 PWs)   bands (ev):

     3.2195   7.8703  11.3770  13.3826  18.6320  23.8143

          k = 0.6154-0.1538 0.7692 (   852 PWs)   bands (ev):

     4.9800   5.7384  10.5672  13.7915  19.1472  25.5519

          k = 0.5385-0.0769 0.6923 (   852 PWs)   bands (ev):

     3.7951   7.0381  10.1115  14.5129  19.9122  25.0958

          k = 0.4615 0.0000 0.6154 (   855 PWs)   bands (ev):

     2.1851   8.8519  10.4252  15.5287  20.9319  24.3286

          k =-0.1538 0.7692 0.0000 (   856 PWs)   bands (ev):

     2.3862  10.5422  11.6554  13.0985  16.8858  19.3412

          k = 0.7692-0.1538 0.9231 (   856 PWs)   bands (ev):

     3.7727   9.2239   9.7531  12.7007  17.6979  21.0035

          k = 0.6923-0.0769 0.8462 (   850 PWs)   bands (ev):

     5.3947   7.4174   8.5213  12.9739  18.2476  23.4983

          k = 0.6154 0.0000 0.7692 (   851 PWs)   bands (ev):

     5.4760   6.8530   8.3853  13.5916  18.9595  26.1913

          k = 0.8462-0.0769 1.0000 (   852 PWs)   bands (ev):

     4.5850   7.6085  11.2536  12.6984  16.4925  18.9701

          k = 0.7692 0.0000 0.9231 (   849 PWs)   bands (ev):

     5.6566   7.0463   9.4775  12.4983  17.5016  20.8250

          k =-0.3077 0.6154 0.0000 (   855 PWs)   bands (ev):

     1.1332  10.4539  11.9776  14.6200  20.8418  22.6414

          k = 0.6154-0.3077 0.9231 (   853 PWs)   bands (ev):

     2.5488   8.4479  11.4758  13.4121  21.5477  23.4922

          k = 0.5385-0.2308 0.8462 (   855 PWs)   bands (ev):

     4.2499   6.2588  11.6572  12.5609  21.9839  22.7771

          k = 0.6923-0.2308 1.0000 (   855 PWs)   bands (ev):

     3.0119   9.6526  10.8141  11.6338  20.0789  22.0354

          k = 0.6154-0.1538 0.9231 (   852 PWs)   bands (ev):

     4.5948   7.8334  10.0408  11.1030  21.0030  23.8909

          k = 0.5385-0.0769 0.8462 (   856 PWs)   bands (ev):

     5.7949   6.4517   9.4611  11.4766  21.6779  24.6189

          k = 0.4615 0.0000 0.7692 (   850 PWs)   bands (ev):

     4.0476   8.0517   9.5793  12.2801  22.5002  23.6326

          k = 0.6923-0.0769 1.0000 (   855 PWs)   bands (ev):

     5.1949   8.1957   9.2520  10.9221  19.6914  21.7059

          k = 0.6154 0.0000 0.9231 (   861 PWs)   bands (ev):

     6.4539   7.4826   8.0492  10.8107  20.8163  23.7841

          k = 0.5385-0.0769 1.0000 (   863 PWs)   bands (ev):

     6.2030   7.6519   8.7991   9.7585  23.2615  24.1666

     the Fermi energy is     8.0584 ev

!    total energy              =     -39.50259295 Ry
     Harris-Foulkes estimate   =     -39.50259299 Ry
     estimated scf accuracy    <       0.00000007 Ry

     total all-electron energy =      -485.645375 Ry

     The total energy is the sum of the following terms:

     one-electron contribution =       3.21645931 Ry
     hartree contribution      =       0.00595901 Ry
     xc contribution           =      -3.04220698 Ry
     ewald contribution        =      -5.44376764 Ry
     one-center paw contrib.   =     -34.23898346 Ry
     smearing contrib. (-TS)   =      -0.00005320 Ry

     convergence has been achieved in   4 iterations

     Writing output data file Al.save

     init_run     :      0.65s CPU      0.67s WALL (       1 calls)
     electrons    :      5.31s CPU      5.48s WALL (       1 calls)

     Called by init_run:
     wfcinit      :      0.31s CPU      0.32s WALL (       1 calls)
     potinit      :      0.07s CPU      0.07s WALL (       1 calls)

     Called by electrons:
     c_bands      :      4.27s CPU      4.42s WALL (       5 calls)
     sum_band     :      0.75s CPU      0.77s WALL (       5 calls)
     v_of_rho     :      0.04s CPU      0.04s WALL (       5 calls)
     newd         :      0.02s CPU      0.02s WALL (       5 calls)
     mix_rho      :      0.02s CPU      0.02s WALL (       5 calls)

     Called by c_bands:
     init_us_2    :      0.16s CPU      0.13s WALL (     924 calls)
     cegterg      :      4.12s CPU      4.28s WALL (     420 calls)

     Called by *egterg:
     h_psi        :      3.69s CPU      3.83s WALL (    1595 calls)
     s_psi        :      0.03s CPU      0.04s WALL (    1595 calls)
     g_psi        :      0.03s CPU      0.03s WALL (    1091 calls)
     cdiaghg      :      0.34s CPU      0.34s WALL (    1427 calls)

     Called by h_psi:
     add_vuspsi   :      0.04s CPU      0.04s WALL (    1595 calls)

     General routines
     calbec       :      0.10s CPU      0.08s WALL (    2015 calls)
     fft          :      0.03s CPU      0.03s WALL (      67 calls)
     fftw         :      4.02s CPU      3.96s WALL (   16896 calls)
     davcio       :      0.03s CPU      0.03s WALL (    1344 calls)

     Parallel routines
     fft_scatter  :      0.70s CPU      0.77s WALL (   16963 calls)

     PAW routines
     PAW_pot      :      0.25s CPU      0.26s WALL (       5 calls)
     PAW_ddot     :      0.02s CPU      0.02s WALL (      12 calls)
     PAW_symme    :      0.00s CPU      0.00s WALL (      10 calls)

     PWSCF        :     6.69s CPU         6.91s WALL


   This run was terminated on:   1:32:41  12Jul2015            

=------------------------------------------------------------------------------=
   JOB DONE.
=------------------------------------------------------------------------------=
