
     Program PWSCF v.5.0.2 (svn rev. 9656) starts on 11Jul2015 at 20:44:30 

     This program is part of the open-source Quantum ESPRESSO suite
     for quantum simulation of materials; please cite
         "P. Giannozzi et al., J. Phys.:Condens. Matter 21 395502 (2009);
          URL http://www.quantum-espresso.org", 
     in publications or presentations arising from this work. More details at
     http://www.quantum-espresso.org/quote.php

     Parallel version (MPI), running on     4 processors
     R & G space division:  proc/nbgrp/npool/nimage =       4

     Current dimensions of program PWSCF are:
     Max number of different atomic species (ntypx) = 10
     Max number of k-points (npk) =  40000
     Max angular momentum in pseudopotentials (lmaxx) =  3
     Waiting for input...
     Reading input from standard input
               file Cu.pbe.UPF: wavefunction(s)  4S 3D renormalized

     Subspace diagonalization in iterative solution of the eigenvalue problem:
     a serial algorithm will be used


     Parallelization info
     --------------------
     sticks:   dense  smooth     PW     G-vecs:    dense   smooth      PW
     Min         289     289     87                 6437     6437    1027
     Max         292     292     88                 6438     6438    1028
     Sum        1159    1159    349                25749    25749    4111



     bravais-lattice index     =            2
     lattice parameter (alat)  =      10.2000  a.u.
     unit-cell volume          =     265.3020 (a.u.)^3
     number of atoms/cell      =            2
     number of atomic types    =            1
     number of electrons       =        22.00
     number of Kohn-Sham states=           15
     kinetic-energy cutoff     =      80.0000  Ry
     charge density cutoff     =     320.0000  Ry
     convergence threshold     =      1.0E-07
     mixing beta               =       0.7000
     number of iterations used =            8  plain     mixing
     Exchange-correlation      =  SLA  PW   PBX  PBC ( 1 4 3 4 0)
     EXX-fraction              =        0.00

     celldm(1)=  10.200000  celldm(2)=   0.000000  celldm(3)=   0.000000
     celldm(4)=   0.000000  celldm(5)=   0.000000  celldm(6)=   0.000000

     crystal axes: (cart. coord. in units of alat)
               a(1) = (  -0.500000   0.000000   0.500000 )  
               a(2) = (   0.000000   0.500000   0.500000 )  
               a(3) = (  -0.500000   0.500000   0.000000 )  

     reciprocal axes: (cart. coord. in units 2 pi/alat)
               b(1) = ( -1.000000 -1.000000  1.000000 )  
               b(2) = (  1.000000  1.000000  1.000000 )  
               b(3) = ( -1.000000  1.000000 -1.000000 )  


     PseudoPot. # 1 for Cu read from file:
     ./Cu.pbe.UPF
     MD5 check sum: 0c51aa2b3b25e0d1c3270f17c0a46a12
     Pseudo is Projector augmented-wave + core cor, Zval = 11.0
     Generated using "atomic" code by A. Dal Corso  v.5.0.99 svn rev. 10869
     Shape of augmentation charge: BESSEL
     Using radial grid of 1199 points,  6 beta functions with: 
                l(1) =   0
                l(2) =   0
                l(3) =   1
                l(4) =   1
                l(5) =   2
                l(6) =   2
     Q(r) pseudized with 0 coefficients 


     atomic species   valence    mass     pseudopotential
        Cu            11.00    63.54600     Cu( 1.00)

     24 Sym. Ops. (no inversion) found
          (note: 24 additional sym.ops. were found but ignored
           their fractional translations are incommensurate with FFT grid)


   Cartesian axes

     site n.     atom                  positions (alat units)
         1           Cu  tau(   1) = (   0.0000000   0.0000000   0.0000000  )
         2           Cu  tau(   2) = (   0.2500000   0.2500000   0.2500000  )

     number of k points=    84  gaussian smearing, width (Ry)=  0.0030
                       cart. coord. in units 2pi/alat
        k(    1) = (   0.0000000   0.0000000   0.0000000), wk =   0.0009103
        k(    2) = (  -0.0769231   0.0769231  -0.0769231), wk =   0.0072827
        k(    3) = (  -0.1538462   0.1538462  -0.1538462), wk =   0.0072827
        k(    4) = (  -0.2307692   0.2307692  -0.2307692), wk =   0.0072827
        k(    5) = (  -0.3076923   0.3076923  -0.3076923), wk =   0.0072827
        k(    6) = (  -0.3846154   0.3846154  -0.3846154), wk =   0.0072827
        k(    7) = (  -0.4615385   0.4615385  -0.4615385), wk =   0.0072827
        k(    8) = (   0.0000000   0.1538462   0.0000000), wk =   0.0054620
        k(    9) = (  -0.0769231   0.2307692  -0.0769231), wk =   0.0218480
        k(   10) = (  -0.1538462   0.3076923  -0.1538462), wk =   0.0218480
        k(   11) = (  -0.2307692   0.3846154  -0.2307692), wk =   0.0218480
        k(   12) = (  -0.3076923   0.4615385  -0.3076923), wk =   0.0218480
        k(   13) = (  -0.3846154   0.5384615  -0.3846154), wk =   0.0218480
        k(   14) = (   0.5384615  -0.3846154   0.5384615), wk =   0.0218480
        k(   15) = (   0.4615385  -0.3076923   0.4615385), wk =   0.0218480
        k(   16) = (   0.3846154  -0.2307692   0.3846154), wk =   0.0218480
        k(   17) = (   0.3076923  -0.1538462   0.3076923), wk =   0.0218480
        k(   18) = (   0.2307692  -0.0769231   0.2307692), wk =   0.0218480
        k(   19) = (   0.1538462   0.0000000   0.1538462), wk =   0.0109240
        k(   20) = (   0.0000000   0.3076923   0.0000000), wk =   0.0054620
        k(   21) = (  -0.0769231   0.3846154  -0.0769231), wk =   0.0218480
        k(   22) = (  -0.1538462   0.4615385  -0.1538462), wk =   0.0218480
        k(   23) = (  -0.2307692   0.5384615  -0.2307692), wk =   0.0218480
        k(   24) = (  -0.3076923   0.6153846  -0.3076923), wk =   0.0218480
        k(   25) = (   0.6153846  -0.3076923   0.6153846), wk =   0.0218480
        k(   26) = (   0.5384615  -0.2307692   0.5384615), wk =   0.0218480
        k(   27) = (   0.4615385  -0.1538462   0.4615385), wk =   0.0218480
        k(   28) = (   0.3846154  -0.0769231   0.3846154), wk =   0.0218480
        k(   29) = (   0.3076923   0.0000000   0.3076923), wk =   0.0109240
        k(   30) = (   0.0000000   0.4615385   0.0000000), wk =   0.0054620
        k(   31) = (  -0.0769231   0.5384615  -0.0769231), wk =   0.0218480
        k(   32) = (  -0.1538462   0.6153846  -0.1538462), wk =   0.0218480
        k(   33) = (  -0.2307692   0.6923077  -0.2307692), wk =   0.0218480
        k(   34) = (   0.6923077  -0.2307692   0.6923077), wk =   0.0218480
        k(   35) = (   0.6153846  -0.1538462   0.6153846), wk =   0.0218480
        k(   36) = (   0.5384615  -0.0769231   0.5384615), wk =   0.0218480
        k(   37) = (   0.4615385   0.0000000   0.4615385), wk =   0.0109240
        k(   38) = (   0.0000000   0.6153846   0.0000000), wk =   0.0054620
        k(   39) = (  -0.0769231   0.6923077  -0.0769231), wk =   0.0218480
        k(   40) = (  -0.1538462   0.7692308  -0.1538462), wk =   0.0218480
        k(   41) = (   0.7692308  -0.1538462   0.7692308), wk =   0.0218480
        k(   42) = (   0.6923077  -0.0769231   0.6923077), wk =   0.0218480
        k(   43) = (   0.6153846   0.0000000   0.6153846), wk =   0.0109240
        k(   44) = (   0.0000000   0.7692308   0.0000000), wk =   0.0054620
        k(   45) = (  -0.0769231   0.8461538  -0.0769231), wk =   0.0218480
        k(   46) = (   0.8461538  -0.0769231   0.8461538), wk =   0.0218480
        k(   47) = (   0.7692308   0.0000000   0.7692308), wk =   0.0109240
        k(   48) = (   0.0000000   0.9230769   0.0000000), wk =   0.0054620
        k(   49) = (   0.9230769   0.0000000   0.9230769), wk =   0.0109240
        k(   50) = (  -0.1538462   0.3076923   0.0000000), wk =   0.0218480
        k(   51) = (  -0.2307692   0.3846154  -0.0769231), wk =   0.0436959
        k(   52) = (  -0.3076923   0.4615385  -0.1538462), wk =   0.0436959
        k(   53) = (  -0.3846154   0.5384615  -0.2307692), wk =   0.0436959
        k(   54) = (   0.5384615  -0.3846154   0.6923077), wk =   0.0436959
        k(   55) = (  -0.1538462   0.4615385   0.0000000), wk =   0.0218480
        k(   56) = (  -0.2307692   0.5384615  -0.0769231), wk =   0.0436959
        k(   57) = (  -0.3076923   0.6153846  -0.1538462), wk =   0.0436959
        k(   58) = (   0.6153846  -0.3076923   0.7692308), wk =   0.0436959
        k(   59) = (   0.5384615  -0.2307692   0.6923077), wk =   0.0436959
        k(   60) = (   0.4615385  -0.1538462   0.6153846), wk =   0.0436959
        k(   61) = (   0.3846154  -0.0769231   0.5384615), wk =   0.0436959
        k(   62) = (   0.3076923   0.0000000   0.4615385), wk =   0.0218480
        k(   63) = (  -0.1538462   0.6153846   0.0000000), wk =   0.0218480
        k(   64) = (  -0.2307692   0.6923077  -0.0769231), wk =   0.0436959
        k(   65) = (   0.6923077  -0.2307692   0.8461538), wk =   0.0436959
        k(   66) = (   0.6153846  -0.1538462   0.7692308), wk =   0.0436959
        k(   67) = (   0.5384615  -0.0769231   0.6923077), wk =   0.0436959
        k(   68) = (   0.4615385   0.0000000   0.6153846), wk =   0.0218480
        k(   69) = (  -0.1538462   0.7692308   0.0000000), wk =   0.0218480
        k(   70) = (   0.7692308  -0.1538462   0.9230769), wk =   0.0436959
        k(   71) = (   0.6923077  -0.0769231   0.8461538), wk =   0.0436959
        k(   72) = (   0.6153846   0.0000000   0.7692308), wk =   0.0218480
        k(   73) = (   0.8461538  -0.0769231   1.0000000), wk =   0.0218480
        k(   74) = (   0.7692308   0.0000000   0.9230769), wk =   0.0218480
        k(   75) = (  -0.3076923   0.6153846   0.0000000), wk =   0.0218480
        k(   76) = (   0.6153846  -0.3076923   0.9230769), wk =   0.0436959
        k(   77) = (   0.5384615  -0.2307692   0.8461538), wk =   0.0436959
        k(   78) = (   0.6923077  -0.2307692   1.0000000), wk =   0.0218480
        k(   79) = (   0.6153846  -0.1538462   0.9230769), wk =   0.0436959
        k(   80) = (   0.5384615  -0.0769231   0.8461538), wk =   0.0436959
        k(   81) = (   0.4615385   0.0000000   0.7692308), wk =   0.0218480
        k(   82) = (   0.6923077  -0.0769231   1.0000000), wk =   0.0218480
        k(   83) = (   0.6153846   0.0000000   0.9230769), wk =   0.0218480
        k(   84) = (   0.5384615  -0.0769231   1.0000000), wk =   0.0218480

     Dense  grid:    25749 G-vectors     FFT dimensions: (  45,  45,  45)

     Largest allocated arrays     est. size (Mb)     dimensions
        Kohn-Sham Wavefunctions         0.18 Mb     (    799,   15)
        NL pseudopotentials             0.44 Mb     (    799,   36)
        Each V/rho on FFT grid          0.37 Mb     (  24300)
        Each G-vector array             0.05 Mb     (   6438)
        G-vector shells                 0.00 Mb     (    283)
     Largest temporary arrays     est. size (Mb)     dimensions
        Auxiliary wavefunctions         0.73 Mb     (    799,   60)
        Each subspace H/S matrix        0.05 Mb     (  60,  60)
        Each <psi_i|beta_j> matrix      0.01 Mb     (     36,   15)
        Arrays for rho mixing           2.97 Mb     (  24300,   8)

     Check: negative/imaginary core charge=   -0.000065    0.000000

     Initial potential from superposition of free atoms

     starting charge   21.99954, renormalised to   22.00000
     Starting wfc are   18 randomized atomic wfcs
     Checking if some PAW data can be deallocated... 

     total cpu time spent up to now is        7.5 secs

     per-process dynamical memory:    15.1 Mb

     Self-consistent Calculation

     iteration #  1     ecut=    80.00 Ry     beta=0.70
     Davidson diagonalization with overlap
     ethr =  1.00E-02,  avg # of iterations =  3.8

     Threshold (ethr) on eigenvalues was too large:
     Diagonalizing with lowered threshold

     Davidson diagonalization with overlap
     ethr =  1.04E-04,  avg # of iterations =  3.4

     total cpu time spent up to now is       37.2 secs

     total energy              =    -426.02772898 Ry
     Harris-Foulkes estimate   =    -426.04215885 Ry
     estimated scf accuracy    <       0.02162032 Ry

     iteration #  2     ecut=    80.00 Ry     beta=0.70
     Davidson diagonalization with overlap
     ethr =  9.83E-05,  avg # of iterations =  3.0

     total cpu time spent up to now is       55.2 secs

     total energy              =    -426.01177660 Ry
     Harris-Foulkes estimate   =    -426.07177566 Ry
     estimated scf accuracy    <       0.21411973 Ry

     iteration #  3     ecut=    80.00 Ry     beta=0.70
     Davidson diagonalization with overlap
     ethr =  9.83E-05,  avg # of iterations =  3.0

     total cpu time spent up to now is       71.7 secs

     total energy              =    -426.03872385 Ry
     Harris-Foulkes estimate   =    -426.04071757 Ry
     estimated scf accuracy    <       0.00414185 Ry

     iteration #  4     ecut=    80.00 Ry     beta=0.70
     Davidson diagonalization with overlap
     ethr =  1.88E-05,  avg # of iterations =  2.3

     total cpu time spent up to now is       86.7 secs

     total energy              =    -426.03972719 Ry
     Harris-Foulkes estimate   =    -426.04045441 Ry
     estimated scf accuracy    <       0.00252799 Ry

     iteration #  5     ecut=    80.00 Ry     beta=0.70
     Davidson diagonalization with overlap
     ethr =  1.15E-05,  avg # of iterations =  1.1

     total cpu time spent up to now is       98.4 secs

     total energy              =    -426.04002793 Ry
     Harris-Foulkes estimate   =    -426.04003285 Ry
     estimated scf accuracy    <       0.00001663 Ry

     iteration #  6     ecut=    80.00 Ry     beta=0.70
     Davidson diagonalization with overlap
     ethr =  7.56E-08,  avg # of iterations =  3.2

     total cpu time spent up to now is      116.1 secs

     total energy              =    -426.04005433 Ry
     Harris-Foulkes estimate   =    -426.04005550 Ry
     estimated scf accuracy    <       0.00000572 Ry

     iteration #  7     ecut=    80.00 Ry     beta=0.70
     Davidson diagonalization with overlap
     ethr =  2.60E-08,  avg # of iterations =  1.0

     total cpu time spent up to now is      127.7 secs

     total energy              =    -426.04005450 Ry
     Harris-Foulkes estimate   =    -426.04005468 Ry
     estimated scf accuracy    <       0.00000084 Ry

     iteration #  8     ecut=    80.00 Ry     beta=0.70
     Davidson diagonalization with overlap
     ethr =  3.82E-09,  avg # of iterations =  2.0

     total cpu time spent up to now is      140.2 secs

     End of self-consistent calculation

          k = 0.0000 0.0000 0.0000 (  3143 PWs)   bands (ev):

     0.6854   3.9892   3.9892   3.9892   4.0117   4.0117   5.0445   5.0445
     5.0445   5.6688   5.6688  16.3945  16.3945  16.3945  17.3383

          k =-0.0769 0.0769-0.0769 (  3191 PWs)   bands (ev):

     0.7762   3.9330   3.9330   3.9910   4.0827   4.0827   5.0257   5.0412
     5.0412   5.6693   5.6693  14.9057  15.9379  15.9379  17.8203

          k =-0.1538 0.1538-0.1538 (  3212 PWs)   bands (ev):

     1.0445   3.8917   3.8917   3.9981   4.1605   4.1605   4.9752   5.0392
     5.0392   5.6686   5.6686  12.9371  15.2886  15.2886  17.7459

          k =-0.2308 0.2308-0.2308 (  3221 PWs)   bands (ev):

     1.4754   3.8793   3.8793   4.0140   4.2107   4.2107   4.9126   5.0572
     5.0572   5.6619   5.6619  11.0550  14.7194  14.7194  17.6093

          k =-0.3077 0.3077-0.3077 (  3212 PWs)   bands (ev):

     2.0311   3.8958   3.8958   4.0374   4.2145   4.2145   4.8826   5.1083
     5.1083   5.6445   5.6445   9.3366  14.2700  14.2700  17.5543

          k =-0.3846 0.3846-0.3846 (  3205 PWs)   bands (ev):

     2.6153   3.9363   3.9363   4.0516   4.1760   4.1760   4.9844   5.1806
     5.1806   5.6167   5.6167   7.8362  13.9588  13.9588  17.5980

          k =-0.4615 0.4615-0.4615 (  3202 PWs)   bands (ev):

     3.0218   3.9847   3.9847   4.0406   4.1237   4.1237   5.2374   5.2374
     5.3290   5.5906   5.5906   6.6898  13.7992  13.7992  17.7099

          k = 0.0000 0.1538 0.0000 (  3199 PWs)   bands (ev):

     0.8066   3.8799   3.9945   3.9945   4.0381   4.1266   4.9699   5.0660
     5.0660   5.6472   5.6892  15.2454  15.2454  15.7585  16.8136

          k =-0.0769 0.2308-0.0769 (  3219 PWs)   bands (ev):

     1.0162   3.8307   3.9660   4.0001   4.1070   4.1965   4.8965   5.0769
     5.0879   5.6265   5.7042  13.5957  14.5783  15.4224  17.0097

          k =-0.1538 0.3077-0.1538 (  3218 PWs)   bands (ev):

     1.3942   3.8064   3.9499   4.0094   4.1667   4.2592   4.8304   5.0774
     5.1201   5.6060   5.7117  11.7044  14.0311  14.8535  17.3329

          k =-0.2308 0.3846-0.2308 (  3212 PWs)   bands (ev):

     1.9122   3.8111   3.9585   4.0249   4.1851   4.2842   4.7989   5.0985
     5.1725   5.5838   5.7073   9.9361  13.6387  14.2677  17.1461

          k =-0.3077 0.4615-0.3077 (  3199 PWs)   bands (ev):

     2.4983   3.8406   3.9847   4.0393   4.1647   4.2601   4.8509   5.1773
     5.2298   5.5655   5.6869   8.3566  13.4230  13.7419  16.9433

          k =-0.3846 0.5385-0.3846 (  3206 PWs)   bands (ev):

     2.9850   3.8814   3.9991   4.0415   4.1456   4.2041   5.0226   5.2485
     5.3896   5.5723   5.6514   7.0469  13.3247  13.3971  16.8913

          k = 0.5385-0.3846 0.5385 (  3202 PWs)   bands (ev):

     3.1315   3.9182   3.9604   4.0595   4.1392   4.1800   5.1373   5.2034
     5.5854   5.6124   5.6494   6.4951  13.0553  13.5630  17.0128

          k = 0.4615-0.3077 0.4615 (  3206 PWs)   bands (ev):

     2.8468   3.9008   3.9512   4.0685   4.1203   4.2389   5.0340   5.1210
     5.3500   5.5660   5.6591   7.4487  12.9585  13.9085  17.3052

          k = 0.3846-0.2308 0.3846 (  3206 PWs)   bands (ev):

     2.3012   3.8520   3.9519   4.0351   4.1616   4.2828   4.8807   5.0393
     5.2584   5.5714   5.6922   8.8634  13.0429  14.4071  17.7479

          k = 0.3077-0.1538 0.3077 (  3212 PWs)   bands (ev):

     1.7257   3.8273   3.9351   4.0146   4.1781   4.2846   4.8660   4.9906
     5.1892   5.5952   5.7068  10.5128  13.3032  15.0196  18.0896

          k = 0.2308-0.0769 0.2308 (  3212 PWs)   bands (ev):

     1.2498   3.8328   3.9300   4.0038   4.1532   4.2373   4.9131   4.9867
     5.1348   5.6212   5.7045  12.3327  13.7252  15.6847  18.0566

          k = 0.1538 0.0000 0.1538 (  3217 PWs)   bands (ev):

     0.9263   3.8694   3.9401   3.9982   4.1020   4.1611   4.9752   5.0110
     5.0892   5.6462   5.6901  14.1700  14.3647  16.1997  17.5955

          k = 0.0000 0.3077 0.0000 (  3203 PWs)   bands (ev):

     1.1664   3.7725   4.0072   4.0072   4.1154   4.2520   4.7804   5.1330
     5.1330   5.5834   5.7288  13.8846  13.8846  14.4549  16.0217

          k =-0.0769 0.3846-0.0769 (  3217 PWs)   bands (ev):

     1.4876   3.7362   4.0044   4.0130   4.1756   4.3140   4.6766   5.1690
     5.1818   5.5434   5.7457  12.3731  13.3096  14.0357  16.1351

          k =-0.1538 0.4615-0.1538 (  3206 PWs)   bands (ev):

     1.9575   3.7282   4.0062   4.0161   4.2165   4.3538   4.6191   5.2026
     5.2363   5.5125   5.7550  10.6225  12.8986  13.4148  16.2199

          k =-0.2308 0.5385-0.2308 (  3211 PWs)   bands (ev):

     2.5199   3.7452   4.0117   4.0153   4.2295   4.3379   4.6559   5.2676
     5.2815   5.5124   5.7535   8.9980  12.6816  12.7597  16.0850

          k =-0.3077 0.6154-0.3077 (  3201 PWs)   bands (ev):

     3.0400   3.7730   3.9985   4.0115   4.2437   4.2854   4.7983   5.2342
     5.4908   5.5637   5.7480   7.5764  12.1875  12.6777  16.0610

          k = 0.6154-0.3077 0.6154 (  3201 PWs)   bands (ev):

     3.2967   3.8038   3.9532   4.0253   4.2146   4.2840   4.9738   5.1522
     5.6332   5.6447   6.0401   6.5170  11.7575  12.8919  16.1943

          k = 0.5385-0.2308 0.5385 (  3188 PWs)   bands (ev):

     3.1485   3.8650   3.8928   4.0709   4.1335   4.3386   5.0409   5.0525
     5.5697   5.6504   5.6902   7.2019  11.5051  13.3116  16.4882

          k = 0.4615-0.1538 0.4615 (  3209 PWs)   bands (ev):

     2.6893   3.8392   3.9248   4.0559   4.1243   4.3790   4.9342   4.9659
     5.4147   5.5248   5.7250   8.5359  11.4480  13.9062  16.9433

          k = 0.3846-0.0769 0.3846 (  3203 PWs)   bands (ev):

     2.1257   3.8066   3.9637   3.9997   4.1596   4.3739   4.8554   4.9257
     5.3385   5.5196   5.7370  10.1036  11.5897  14.6211  17.5578

          k = 0.3077 0.0000 0.3077 (  3218 PWs)   bands (ev):

     1.6205   3.8034   3.9549   3.9966   4.1651   4.3175   4.8599   4.9408
     5.2389   5.5669   5.7289  11.7150  12.0383  15.3352  18.3578

          k = 0.0000 0.4615 0.0000 (  3207 PWs)   bands (ev):

     1.7511   3.6869   4.0201   4.0201   4.2382   4.3704   4.5311   5.2477
     5.2477   5.4797   5.7708  12.6885  12.6885  12.8258  15.3836

          k =-0.0769 0.5385-0.0769 (  3207 PWs)   bands (ev):

     2.1668   3.6669   4.0189   4.0229   4.3030   4.4068   4.4399   5.3072
     5.3114   5.4336   5.7943  11.2442  12.2281  12.3728  15.4707

          k =-0.1538 0.6154-0.1538 (  3205 PWs)   bands (ev):

     2.6875   3.6743   3.9980   4.0207   4.3469   4.3554   4.4967   5.2824
     5.3966   5.4780   5.8196   9.6903  11.6637  11.9675  15.4739

          k =-0.2308 0.6923-0.2308 (  3208 PWs)   bands (ev):

     3.1987   3.6954   3.9699   4.0035   4.3231   4.3806   4.6111   5.1967
     5.5696   5.5699   5.8697   8.2488  10.9831  11.9328  15.4621

          k = 0.6923-0.2308 0.6923 (  3201 PWs)   bands (ev):

     3.5036   3.7192   3.9642   3.9700   4.2680   4.4215   4.7966   5.0899
     5.6516   5.7087   6.2293   7.0091  10.4363  12.1324  15.5796

          k = 0.6154-0.1538 0.6154 (  3196 PWs)   bands (ev):

     3.4509   3.7955   3.9097   4.0117   4.1855   4.4677   4.9555   4.9789
     5.6809   5.7096   6.0695   7.1285  10.0685  12.5525  15.8427

          k = 0.5385-0.0769 0.5385 (  3199 PWs)   bands (ev):

     3.1226   3.8560   3.8640   4.0721   4.1030   4.4919   4.8959   5.0003
     5.5412   5.6148   5.7414   8.3688   9.9113  13.1583  16.2577

          k = 0.4615 0.0000 0.4615 (  3186 PWs)   bands (ev):

     2.6273   3.8180   3.9219   4.0375   4.1273   4.4564   4.8814   4.9158
     5.4617   5.4828   5.7495   9.6841  10.1229  13.8900  16.8298

          k = 0.0000 0.6154 0.0000 (  3206 PWs)   bands (ev):

     2.5255   3.6366   4.0279   4.0279   4.2669   4.3978   4.4683   5.3405
     5.4002   5.4002   5.8384  11.0128  11.7061  11.7061  14.9466

          k =-0.0769 0.6923-0.0769 (  3199 PWs)   bands (ev):

     2.9915   3.6377   3.9992   4.0270   4.1998   4.4735   4.4999   5.2482
     5.4869   5.4960   5.9016   9.9586  11.0045  11.3825  15.0311

          k =-0.1538 0.7692-0.1538 (  3213 PWs)   bands (ev):

     3.4567   3.6585   3.9295   4.0147   4.2484   4.5283   4.5298   5.1411
     5.5918   5.6157   6.0243   8.8180  10.0953  11.2929  15.0482

          k = 0.7692-0.1538 0.7692 (  3211 PWs)   bands (ev):

     3.6658   3.7491   3.9060   3.9856   4.2809   4.5777   4.6396   5.0218
     5.6678   5.7419   6.3814   7.7079   9.3492  11.4513  15.1399

          k = 0.6923-0.0769 0.6923 (  3207 PWs)   bands (ev):

     3.6287   3.8380   3.9384   3.9420   4.2262   4.6142   4.8178   4.9073
     5.7165   5.7702   6.5990   7.2978   8.8424  11.8443  15.3648

          k = 0.6154 0.0000 0.6154 (  3214 PWs)   bands (ev):

     3.4718   3.8351   3.8943   4.0041   4.1577   4.5914   4.8569   4.9544
     5.7176   5.7396   5.9288   8.1926   8.7577  12.4336  15.7341

          k = 0.0000 0.7692 0.0000 (  3214 PWs)   bands (ev):

     3.3930   3.6363   4.0246   4.0305   4.0305   4.5181   4.5833   5.1719
     5.5572   5.5572   6.0237   9.2329  10.9886  10.9886  14.7010

          k =-0.0769 0.8462-0.0769 (  3225 PWs)   bands (ev):

     3.6621   3.7814   3.8906   4.0258   4.1140   4.5072   4.6684   5.0704
     5.6269   5.6391   6.2363   8.4166  10.3116  10.8312  14.7854

          k = 0.8462-0.0769 0.8462 (  3221 PWs)   bands (ev):

     3.6832   3.8248   3.9628   4.0084   4.2674   4.5137   4.7332   4.9506
     5.6800   5.7327   6.6499   7.7226   9.2786  10.9332  14.8538

          k = 0.7692 0.0000 0.7692 (  3202 PWs)   bands (ev):

     3.6639   3.8617   3.9601   3.9784   4.2662   4.6581   4.7415   4.8641
     5.7085   5.7877   7.0697   7.3434   8.4501  11.2842  15.0395

          k = 0.0000 0.9231 0.0000 (  3234 PWs)   bands (ev):

     3.6982   3.8273   4.0306   4.0306   4.1158   4.4524   4.7823   4.9825
     5.6618   5.6618   6.5628   7.6779  10.6020  10.6020  14.6336

          k = 0.9231 0.0000 0.9231 (  3222 PWs)   bands (ev):

     3.7328   3.7676   4.0248   4.0314   4.3241   4.3760   4.8640   4.8802
     5.6808   5.6974   7.0723   7.0784  10.0939  10.6373  14.7067

          k =-0.1538 0.3077 0.0000 (  3220 PWs)   bands (ev):

     1.2814   3.7882   3.9736   4.0055   4.1443   4.2643   4.8066   5.0683
     5.1600   5.5904   5.7239  12.8953  13.1502  15.2232  16.9530

          k =-0.2308 0.3846-0.0769 (  3211 PWs)   bands (ev):

     1.7061   3.7719   3.9799   4.0060   4.1779   4.3259   4.7428   5.0633
     5.2346   5.5523   5.7360  11.1829  12.5965  14.6472  17.2084

          k =-0.3077 0.4615-0.1538 (  3211 PWs)   bands (ev):

     2.2497   3.7839   3.9775   4.0260   4.1781   4.3466   4.7424   5.0916
     5.3083   5.5261   5.7346   9.4908  12.3022  13.9679  17.0466

          k =-0.3846 0.5385-0.2308 (  3197 PWs)   bands (ev):

     2.8119   3.8155   3.9549   4.0637   4.1592   4.3167   4.8419   5.1632
     5.3913   5.5435   5.7160   7.9888  12.1770  13.3805  16.8869

          k = 0.5385-0.3846 0.6923 (  3208 PWs)   bands (ev):

     3.1941   3.8404   3.9280   4.0694   4.1774   4.2635   4.9955   5.1725
     5.5932   5.6423   5.7693   6.7766  12.1789  13.0050  16.8144

          k =-0.1538 0.4615 0.0000 (  3211 PWs)   bands (ev):

     1.8561   3.7077   4.0074   4.0186   4.2253   4.3738   4.5728   5.1878
     5.2781   5.4923   5.7652  11.7088  12.0674  13.5766  16.2295

          k =-0.2308 0.5385-0.0769 (  3208 PWs)   bands (ev):

     2.3541   3.7076   3.9836   4.0359   4.2548   4.4083   4.5418   5.2098
     5.3661   5.4650   5.7802  10.1827  11.5772  12.9348  16.3764

          k =-0.3077 0.6154-0.1538 (  3208 PWs)   bands (ev):

     2.8996   3.7278   3.9473   4.0511   4.2669   4.3814   4.6312   5.2141
     5.4489   5.5311   5.7907   8.6521  11.3393  12.3453  16.3101

          k = 0.6154-0.3077 0.7692 (  3210 PWs)   bands (ev):

     3.3242   3.7480   3.9117   4.0527   4.2747   4.3476   4.7979   5.1445
     5.6102   5.6710   5.9077   7.3179  11.1176  12.0755  16.3570

          k = 0.5385-0.2308 0.6923 (  3206 PWs)   bands (ev):

     3.4339   3.7760   3.8848   4.0596   4.2288   4.3717   4.9278   5.0653
     5.6614   5.6890   6.2634   6.6404  10.8531  12.2308  16.5427

          k = 0.4615-0.1538 0.6154 (  3199 PWs)   bands (ev):

     3.1824   3.8077   3.8801   4.0852   4.1632   4.4190   4.8437   5.1012
     5.5683   5.6346   5.7601   7.7806  10.6844  12.6806  16.8615

          k = 0.3846-0.0769 0.5385 (  3198 PWs)   bands (ev):

     2.6978   3.7820   3.9263   4.0611   4.1618   4.4394   4.7290   5.0832
     5.4408   5.5029   5.7586   9.1916  10.6965  13.3188  17.2955

          k = 0.3077 0.0000 0.4615 (  3201 PWs)   bands (ev):

     2.1609   3.7637   3.9724   4.0167   4.1810   4.4005   4.6981   5.0535
     5.3621   5.4906   5.7542  10.6449  11.0453  14.0495  17.7973

          k =-0.1538 0.6154 0.0000 (  3190 PWs)   bands (ev):

     2.6098   3.6562   3.9911   4.0374   4.3401   4.3669   4.4679   5.2885
     5.4249   5.4311   5.8306  10.5389  11.1774  11.9153  15.7121

          k =-0.2308 0.6923-0.0769 (  3199 PWs)   bands (ev):

     3.1122   3.6703   3.9352   4.0450   4.3354   4.4078   4.5191   5.2062
     5.5157   5.5477   5.8859   9.2997  10.5920  11.3947  15.8361

          k = 0.6923-0.2308 0.8462 (  3193 PWs)   bands (ev):

     3.5208   3.6892   3.8909   4.0385   4.3308   4.4579   4.6288   5.0976
     5.6335   5.6909   6.0669   8.0096  10.0704  11.2527  15.8839

          k = 0.6154-0.1538 0.7692 (  3205 PWs)   bands (ev):

     3.6404   3.7448   3.8750   4.0325   4.2759   4.5098   4.7973   4.9828
     5.6979   5.7488   6.6116   6.9698   9.6035  11.4687  16.0660

          k = 0.5385-0.0769 0.6923 (  3202 PWs)   bands (ev):

     3.5037   3.8083   3.8501   4.0561   4.2007   4.5477   4.8134   4.9942
     5.7027   5.7308   6.0387   7.7542   9.3086  11.9332  16.3907

          k = 0.4615 0.0000 0.6154 (  3199 PWs)   bands (ev):

     3.1651   3.8035   3.8670   4.0874   4.1485   4.5281   4.7432   5.0728
     5.5518   5.6164   5.7775   8.8767   9.3977  12.5769  16.8455

          k =-0.1538 0.7692 0.0000 (  3203 PWs)   bands (ev):

     3.4287   3.6493   3.9263   4.0411   4.1832   4.5057   4.5624   5.1530
     5.5762   5.5854   6.0222   9.1599  10.5310  10.7815  15.4035

          k = 0.7692-0.1538 0.9231 (  3207 PWs)   bands (ev):

     3.6739   3.7524   3.8667   4.0390   4.2774   4.5131   4.6289   5.0363
     5.6610   5.6946   6.2830   8.3287   9.6106  10.6298  15.5353

          k = 0.6923-0.0769 0.8462 (  3210 PWs)   bands (ev):

     3.6734   3.8111   3.9253   4.0223   4.3056   4.6232   4.6885   4.9119
     5.7108   5.7768   6.7997   7.5525   8.7725  10.8439  15.6847

          k = 0.6154 0.0000 0.7692 (  3206 PWs)   bands (ev):

     3.6425   3.8352   3.8868   4.0237   4.2513   4.6658   4.7611   4.8777
     5.7315   5.7828   6.6136   7.7043   8.4229  11.2973  15.9720

          k = 0.8462-0.0769 1.0000 (  3216 PWs)   bands (ev):

     3.6980   3.8003   3.9814   4.0383   4.2342   4.4614   4.7588   4.9628
     5.6864   5.6866   6.6017   7.7196  10.1992  10.2589  15.2913

          k = 0.7692 0.0000 0.9231 (  3206 PWs)   bands (ev):

     3.7021   3.7734   4.0165   4.0229   4.3434   4.4864   4.8105   4.8548
     5.7095   5.7480   7.1617   7.1832   9.2673  10.4155  15.4387

          k =-0.3077 0.6154 0.0000 (  3204 PWs)   bands (ev):

     2.8435   3.7137   3.9264   4.0622   4.2717   4.4857   4.5171   5.1908
     5.4569   5.5116   5.8084   9.7002  10.2460  12.2495  17.3494

          k = 0.6154-0.3077 0.9231 (  3195 PWs)   bands (ev):

     3.3075   3.7344   3.8719   4.0761   4.2843   4.4783   4.6331   5.1205
     5.5965   5.6396   5.8718   8.4635   9.9571  11.5999  17.2511

          k = 0.5385-0.2308 0.8462 (  3200 PWs)   bands (ev):

     3.5872   3.7346   3.8485   4.0728   4.3078   4.4514   4.7883   5.0146
     5.6887   5.7352   6.2972   7.2584   9.9656  11.1839  17.2105

          k = 0.6923-0.2308 1.0000 (  3207 PWs)   bands (ev):

     3.5138   3.6883   3.8644   4.0648   4.4021   4.4246   4.5644   5.0951
     5.6404   5.6537   6.0368   8.8118   9.6868  10.6507  16.9808

          k = 0.6154-0.1538 0.9231 (  3212 PWs)   bands (ev):

     3.7008   3.7163   3.8709   4.0638   4.4005   4.5166   4.6506   4.9672
     5.7166   5.7528   6.4474   7.9156   9.2601  10.2635  17.0828

          k = 0.5385-0.0769 0.8462 (  3204 PWs)   bands (ev):

     3.6845   3.7527   3.8944   4.0614   4.3573   4.5790   4.7356   4.8877
     5.7408   5.7794   6.7707   7.4508   8.9357  10.4111  17.2882

          k = 0.4615 0.0000 0.7692 (  3211 PWs)   bands (ev):

     3.5987   3.7529   3.8457   4.0751   4.3120   4.6025   4.6323   4.9971
     5.7223   5.7298   6.1807   8.2381   8.9247  10.9061  17.5523

          k = 0.6923-0.0769 1.0000 (  3210 PWs)   bands (ev):

     3.7023   3.7477   3.9622   4.0508   4.4132   4.4830   4.7068   4.9072
     5.7385   5.7404   6.7406   7.7913   9.4494   9.6911  16.8090

          k = 0.6154 0.0000 0.9231 (  3204 PWs)   bands (ev):

     3.6926   3.7470   3.9908   4.0395   4.4091   4.5921   4.7392   4.8081
     5.7530   5.7875   7.1989   7.4243   8.7270   9.8584  17.0108

          k = 0.5385-0.0769 1.0000 (  3218 PWs)   bands (ev):

     3.7081   3.7185   3.9694   4.0523   4.4756   4.5653   4.6874   4.8314
     5.7693   5.7837   6.9951   7.7037   8.8444   9.5073  18.2814

     the Fermi energy is     6.7916 ev

!    total energy              =    -426.04005458 Ry
     Harris-Foulkes estimate   =    -426.04005461 Ry
     estimated scf accuracy    <       0.00000003 Ry

     total all-electron energy =     -6619.799591 Ry

     The total energy is the sum of the following terms:

     one-electron contribution =    -116.84883175 Ry
     hartree contribution      =      57.89162596 Ry
     xc contribution           =     -73.47554041 Ry
     ewald contribution        =    -127.80442418 Ry
     one-center paw contrib.   =    -165.80278400 Ry
     smearing contrib. (-TS)   =      -0.00010021 Ry

     convergence has been achieved in   8 iterations

     Writing output data file Cu.save

     init_run     :      6.42s CPU      6.69s WALL (       1 calls)
     electrons    :    129.50s CPU    132.67s WALL (       1 calls)

     Called by init_run:
     wfcinit      :      5.12s CPU      5.28s WALL (       1 calls)
     potinit      :      0.42s CPU      0.44s WALL (       1 calls)

     Called by electrons:
     c_bands      :    106.05s CPU    108.61s WALL (       9 calls)
     sum_band     :     18.94s CPU     19.38s WALL (       9 calls)
     v_of_rho     :      0.42s CPU      0.43s WALL (       9 calls)
     newd         :      0.74s CPU      0.76s WALL (       9 calls)
     mix_rho      :      0.51s CPU      0.51s WALL (       9 calls)

     Called by c_bands:
     init_us_2    :      1.91s CPU      1.99s WALL (    1596 calls)
     cegterg      :    101.08s CPU    103.43s WALL (     756 calls)

     Called by *egterg:
     h_psi        :     92.67s CPU     94.72s WALL (    2753 calls)
     s_psi        :      1.94s CPU      1.94s WALL (    2753 calls)
     g_psi        :      0.55s CPU      0.57s WALL (    1913 calls)
     cdiaghg      :      3.26s CPU      3.33s WALL (    2585 calls)

     Called by h_psi:
     add_vuspsi   :      2.06s CPU      2.08s WALL (    2753 calls)

     General routines
     calbec       :      2.95s CPU      2.98s WALL (    3509 calls)
     fft          :      0.19s CPU      0.22s WALL (     119 calls)
     fftw         :     92.27s CPU     94.93s WALL (   74540 calls)
     davcio       :      0.34s CPU      0.35s WALL (    2352 calls)

     Parallel routines
     fft_scatter  :     22.54s CPU     22.85s WALL (   74659 calls)

     PAW routines
     PAW_pot      :      3.24s CPU      3.36s WALL (       9 calls)
     PAW_ddot     :      0.47s CPU      0.47s WALL (      86 calls)
     PAW_symme    :      0.01s CPU      0.01s WALL (      18 calls)

     PWSCF        :  2m17.19s CPU     2m20.67s WALL


   This run was terminated on:  20:46:50  11Jul2015            

=------------------------------------------------------------------------------=
   JOB DONE.
=------------------------------------------------------------------------------=
