
     Program PWSCF v.5.0.2 (svn rev. 9656) starts on 11Jul2015 at 20:29: 2 

     This program is part of the open-source Quantum ESPRESSO suite
     for quantum simulation of materials; please cite
         "P. Giannozzi et al., J. Phys.:Condens. Matter 21 395502 (2009);
          URL http://www.quantum-espresso.org", 
     in publications or presentations arising from this work. More details at
     http://www.quantum-espresso.org/quote.php

     Parallel version (MPI), running on     4 processors
     R & G space division:  proc/nbgrp/npool/nimage =       4

     Current dimensions of program PWSCF are:
     Max number of different atomic species (ntypx) = 10
     Max number of k-points (npk) =  40000
     Max angular momentum in pseudopotentials (lmaxx) =  3
     Waiting for input...
     Reading input from standard input
               file Cu.pbe.UPF: wavefunction(s)  4S 3D renormalized

     Subspace diagonalization in iterative solution of the eigenvalue problem:
     a serial algorithm will be used


     Parallelization info
     --------------------
     sticks:   dense  smooth     PW     G-vecs:    dense   smooth      PW
     Min         250     250     75                 5217     5217     869
     Max         251     251     76                 5220     5220     872
     Sum        1003    1003    301                20875    20875    3479



     bravais-lattice index     =            2
     lattice parameter (alat)  =      10.2000  a.u.
     unit-cell volume          =     265.3020 (a.u.)^3
     number of atoms/cell      =            2
     number of atomic types    =            1
     number of electrons       =        22.00
     number of Kohn-Sham states=           15
     kinetic-energy cutoff     =      70.0000  Ry
     charge density cutoff     =     280.0000  Ry
     convergence threshold     =      1.0E-07
     mixing beta               =       0.7000
     number of iterations used =            8  plain     mixing
     Exchange-correlation      =  SLA  PW   PBX  PBC ( 1 4 3 4 0)
     EXX-fraction              =        0.00

     celldm(1)=  10.200000  celldm(2)=   0.000000  celldm(3)=   0.000000
     celldm(4)=   0.000000  celldm(5)=   0.000000  celldm(6)=   0.000000

     crystal axes: (cart. coord. in units of alat)
               a(1) = (  -0.500000   0.000000   0.500000 )  
               a(2) = (   0.000000   0.500000   0.500000 )  
               a(3) = (  -0.500000   0.500000   0.000000 )  

     reciprocal axes: (cart. coord. in units 2 pi/alat)
               b(1) = ( -1.000000 -1.000000  1.000000 )  
               b(2) = (  1.000000  1.000000  1.000000 )  
               b(3) = ( -1.000000  1.000000 -1.000000 )  


     PseudoPot. # 1 for Cu read from file:
     ./Cu.pbe.UPF
     MD5 check sum: 0c51aa2b3b25e0d1c3270f17c0a46a12
     Pseudo is Projector augmented-wave + core cor, Zval = 11.0
     Generated using "atomic" code by A. Dal Corso  v.5.0.99 svn rev. 10869
     Shape of augmentation charge: BESSEL
     Using radial grid of 1199 points,  6 beta functions with: 
                l(1) =   0
                l(2) =   0
                l(3) =   1
                l(4) =   1
                l(5) =   2
                l(6) =   2
     Q(r) pseudized with 0 coefficients 


     atomic species   valence    mass     pseudopotential
        Cu            11.00    63.54600     Cu( 1.00)

     48 Sym. Ops., with inversion, found (24 have fractional translation)



   Cartesian axes

     site n.     atom                  positions (alat units)
         1           Cu  tau(   1) = (   0.0000000   0.0000000   0.0000000  )
         2           Cu  tau(   2) = (   0.2500000   0.2500000   0.2500000  )

     number of k points=    29  gaussian smearing, width (Ry)=  0.0030
                       cart. coord. in units 2pi/alat
        k(    1) = (   0.0000000   0.0000000   0.0000000), wk =   0.0039062
        k(    2) = (  -0.1250000   0.1250000  -0.1250000), wk =   0.0312500
        k(    3) = (  -0.2500000   0.2500000  -0.2500000), wk =   0.0312500
        k(    4) = (  -0.3750000   0.3750000  -0.3750000), wk =   0.0312500
        k(    5) = (   0.5000000  -0.5000000   0.5000000), wk =   0.0156250
        k(    6) = (   0.0000000   0.2500000   0.0000000), wk =   0.0234375
        k(    7) = (  -0.1250000   0.3750000  -0.1250000), wk =   0.0937500
        k(    8) = (  -0.2500000   0.5000000  -0.2500000), wk =   0.0937500
        k(    9) = (   0.6250000  -0.3750000   0.6250000), wk =   0.0937500
        k(   10) = (   0.5000000  -0.2500000   0.5000000), wk =   0.0937500
        k(   11) = (   0.3750000  -0.1250000   0.3750000), wk =   0.0937500
        k(   12) = (   0.2500000   0.0000000   0.2500000), wk =   0.0468750
        k(   13) = (   0.0000000   0.5000000   0.0000000), wk =   0.0234375
        k(   14) = (  -0.1250000   0.6250000  -0.1250000), wk =   0.0937500
        k(   15) = (   0.7500000  -0.2500000   0.7500000), wk =   0.0937500
        k(   16) = (   0.6250000  -0.1250000   0.6250000), wk =   0.0937500
        k(   17) = (   0.5000000   0.0000000   0.5000000), wk =   0.0468750
        k(   18) = (   0.0000000   0.7500000   0.0000000), wk =   0.0234375
        k(   19) = (   0.8750000  -0.1250000   0.8750000), wk =   0.0937500
        k(   20) = (   0.7500000   0.0000000   0.7500000), wk =   0.0468750
        k(   21) = (   0.0000000  -1.0000000   0.0000000), wk =   0.0117188
        k(   22) = (  -0.2500000   0.5000000   0.0000000), wk =   0.0937500
        k(   23) = (   0.6250000  -0.3750000   0.8750000), wk =   0.1875000
        k(   24) = (   0.5000000  -0.2500000   0.7500000), wk =   0.0937500
        k(   25) = (   0.7500000  -0.2500000   1.0000000), wk =   0.0937500
        k(   26) = (   0.6250000  -0.1250000   0.8750000), wk =   0.1875000
        k(   27) = (   0.5000000   0.0000000   0.7500000), wk =   0.0937500
        k(   28) = (  -0.2500000  -1.0000000   0.0000000), wk =   0.0468750
        k(   29) = (  -0.5000000  -1.0000000   0.0000000), wk =   0.0234375

     Dense  grid:    20875 G-vectors     FFT dimensions: (  40,  40,  40)

     Largest allocated arrays     est. size (Mb)     dimensions
        Kohn-Sham Wavefunctions         0.15 Mb     (    668,   15)
        NL pseudopotentials             0.37 Mb     (    668,   36)
        Each V/rho on FFT grid          0.24 Mb     (  16000)
        Each G-vector array             0.04 Mb     (   5220)
        G-vector shells                 0.00 Mb     (    247)
     Largest temporary arrays     est. size (Mb)     dimensions
        Auxiliary wavefunctions         0.61 Mb     (    668,   60)
        Each subspace H/S matrix        0.05 Mb     (  60,  60)
        Each <psi_i|beta_j> matrix      0.01 Mb     (     36,   15)
        Arrays for rho mixing           1.95 Mb     (  16000,   8)

     Check: negative/imaginary core charge=   -0.000072    0.000000

     Initial potential from superposition of free atoms

     starting charge   21.99954, renormalised to   22.00000
     Starting wfc are   18 randomized atomic wfcs
     Checking if some PAW data can be deallocated... 

     total cpu time spent up to now is        3.3 secs

     per-process dynamical memory:    13.3 Mb

     Self-consistent Calculation

     iteration #  1     ecut=    70.00 Ry     beta=0.70
     Davidson diagonalization with overlap
     ethr =  1.00E-02,  avg # of iterations =  3.5

     Threshold (ethr) on eigenvalues was too large:
     Diagonalizing with lowered threshold

     Davidson diagonalization with overlap
     ethr =  2.16E-05,  avg # of iterations =  4.4

     total cpu time spent up to now is       11.6 secs

     total energy              =    -426.04116314 Ry
     Harris-Foulkes estimate   =    -426.04172088 Ry
     estimated scf accuracy    <       0.00592540 Ry

     iteration #  2     ecut=    70.00 Ry     beta=0.70
     Davidson diagonalization with overlap
     ethr =  2.69E-05,  avg # of iterations =  2.1

     total cpu time spent up to now is       15.5 secs

     total energy              =    -426.03966094 Ry
     Harris-Foulkes estimate   =    -426.04354311 Ry
     estimated scf accuracy    <       0.00824219 Ry

     iteration #  3     ecut=    70.00 Ry     beta=0.70
     Davidson diagonalization with overlap
     ethr =  2.69E-05,  avg # of iterations =  2.2

     total cpu time spent up to now is       19.5 secs

     total energy              =    -426.04169967 Ry
     Harris-Foulkes estimate   =    -426.04250611 Ry
     estimated scf accuracy    <       0.00280846 Ry

     iteration #  4     ecut=    70.00 Ry     beta=0.70
     Davidson diagonalization with overlap
     ethr =  1.28E-05,  avg # of iterations =  1.2

     total cpu time spent up to now is       22.7 secs

     total energy              =    -426.04206001 Ry
     Harris-Foulkes estimate   =    -426.04206047 Ry
     estimated scf accuracy    <       0.00000344 Ry

     iteration #  5     ecut=    70.00 Ry     beta=0.70
     Davidson diagonalization with overlap
     ethr =  1.56E-08,  avg # of iterations =  3.8

     total cpu time spent up to now is       27.7 secs

     total energy              =    -426.04208602 Ry
     Harris-Foulkes estimate   =    -426.04208643 Ry
     estimated scf accuracy    <       0.00000292 Ry

     iteration #  6     ecut=    70.00 Ry     beta=0.70
     Davidson diagonalization with overlap
     ethr =  1.33E-08,  avg # of iterations =  1.0

     total cpu time spent up to now is       31.0 secs

     total energy              =    -426.04208619 Ry
     Harris-Foulkes estimate   =    -426.04208617 Ry
     estimated scf accuracy    <       0.00000077 Ry

     iteration #  7     ecut=    70.00 Ry     beta=0.70
     Davidson diagonalization with overlap
     ethr =  3.52E-09,  avg # of iterations =  1.0

     total cpu time spent up to now is       34.3 secs

     total energy              =    -426.04208613 Ry
     Harris-Foulkes estimate   =    -426.04208621 Ry
     estimated scf accuracy    <       0.00000094 Ry

     iteration #  8     ecut=    70.00 Ry     beta=0.70
     Davidson diagonalization with overlap
     ethr =  3.52E-09,  avg # of iterations =  1.0

     total cpu time spent up to now is       37.6 secs

     total energy              =    -426.04208613 Ry
     Harris-Foulkes estimate   =    -426.04208614 Ry
     estimated scf accuracy    <       0.00000047 Ry

     iteration #  9     ecut=    70.00 Ry     beta=0.70
     Davidson diagonalization with overlap
     ethr =  2.14E-09,  avg # of iterations =  1.0

     total cpu time spent up to now is       41.0 secs

     total energy              =    -426.04208604 Ry
     Harris-Foulkes estimate   =    -426.04208613 Ry
     estimated scf accuracy    <       0.00000037 Ry

     iteration # 10     ecut=    70.00 Ry     beta=0.70
     Davidson diagonalization with overlap
     ethr =  1.66E-09,  avg # of iterations =  1.1

     total cpu time spent up to now is       44.1 secs

     End of self-consistent calculation

          k = 0.0000 0.0000 0.0000 (  2685 PWs)   bands (ev):

     0.6862   3.9759   3.9759   3.9759   3.9993   3.9993   5.0311   5.0311
     5.0311   5.6548   5.6548  16.3887  16.3887  16.3887  17.3372

          k =-0.1250 0.1250-0.1250 (  2661 PWs)   bands (ev):

     0.9244   3.8912   3.8912   3.9813   4.1201   4.1201   4.9840   5.0254
     5.0254   5.6552   5.6552  13.6701  15.5224  15.5224  17.8021

          k =-0.2500 0.2500-0.2500 (  2632 PWs)   bands (ev):

     1.6050   3.8681   3.8681   4.0061   4.2034   4.2034   4.8880   5.0535
     5.0535   5.6446   5.6446  10.6061  14.5906  14.5906  17.5895

          k =-0.3750 0.3750-0.3750 (  2611 PWs)   bands (ev):

     2.5442   3.9173   3.9173   4.0378   4.1697   4.1697   4.9529   5.1581
     5.1581   5.6063   5.6063   8.0055  13.9849  13.9849  17.5897

          k = 0.5000-0.5000 0.5000 (  2608 PWs)   bands (ev):

     3.0741   3.9817   3.9817   4.0234   4.1005   4.1005   5.2325   5.2325
     5.4593   5.5720   5.5720   6.4475  13.7742  13.7742  17.7373

          k = 0.0000 0.2500 0.0000 (  2645 PWs)   bands (ev):

     1.0047   3.7984   3.9886   3.9886   4.0683   4.1923   4.8483   5.0890
     5.0890   5.5982   5.6995  14.3763  14.3763  14.9807  16.3113

          k =-0.1250 0.3750-0.1250 (  2631 PWs)   bands (ev):

     1.5424   3.7451   3.9749   3.9991   4.1633   4.2930   4.7057   5.1262
     5.1577   5.5459   5.7225  11.6761  13.4542  14.2479  16.6191

          k =-0.2500 0.5000-0.2500 (  2630 PWs)   bands (ev):

     2.4207   3.7630   3.9902   4.0104   4.1849   4.3031   4.7087   5.2111
     5.2385   5.5167   5.7172   8.9337  12.9771  13.2336  16.3999

          k = 0.6250-0.3750 0.6250 (  2618 PWs)   bands (ev):

     3.1626   3.8141   3.9665   4.0161   4.2042   4.2116   4.9591   5.1994
     5.5805   5.5968   5.7424   6.7873  12.4291  13.0357  16.3978

          k = 0.5000-0.2500 0.5000 (  2617 PWs)   bands (ev):

     2.9762   3.8722   3.8937   4.0757   4.0962   4.2915   5.0248   5.0539
     5.4593   5.5541   5.6712   7.4261  12.0475  13.6318  16.8346

          k = 0.3750-0.1250 0.3750 (  2626 PWs)   bands (ev):

     2.0997   3.8026   3.9459   3.9959   4.1498   4.3319   4.8449   4.9419
     5.2898   5.5267   5.7120   9.8208  12.1663  14.6520  17.7036

          k = 0.2500 0.0000 0.2500 (  2635 PWs)   bands (ev):

     1.3123   3.8064   3.9277   3.9892   4.1386   4.2477   4.8835   4.9548
     5.1561   5.5899   5.7008  12.5908  12.8712  15.7488  18.0129

          k = 0.0000 0.5000 0.0000 (  2650 PWs)   bands (ev):

     1.9290   3.6585   4.0090   4.0090   4.2624   4.3846   4.4528   5.2697
     5.2697   5.4342   5.7694  12.3744  12.4195  12.4195  15.2603

          k =-0.1250 0.6250-0.1250 (  2618 PWs)   bands (ev):

     2.6837   3.6481   3.9874   4.0095   4.3190   4.3609   4.4670   5.2756
     5.3952   5.4512   5.8196  10.0214  11.5124  11.8274  15.3642

          k = 0.7500-0.2500 0.7500 (  2626 PWs)   bands (ev):

     3.4391   3.6796   3.9383   3.9764   4.2908   4.4251   4.6472   5.1168
     5.6034   5.6630   6.0063   7.7725  10.3975  11.8243  15.3896

          k = 0.6250-0.1250 0.6250 (  2615 PWs)   bands (ev):

     3.4824   3.7877   3.8967   3.9893   4.1741   4.4952   4.9283   4.9344
     5.6870   5.7034   6.0959   7.2774   9.6980  12.4296  15.7588

          k = 0.5000 0.0000 0.5000 (  2622 PWs)   bands (ev):

     2.8798   3.8201   3.8806   4.0530   4.0904   4.4765   4.8585   4.9530
     5.4576   5.5346   5.7356   9.2528   9.7243  13.5068  16.5258

          k = 0.0000 0.7500 0.0000 (  2630 PWs)   bands (ev):

     3.2835   3.6217   4.0166   4.0166   4.0414   4.5039   4.5461   5.1807
     5.5252   5.5252   5.9755   9.4418  11.0611  11.0611  14.7275

          k = 0.8750-0.1250 0.8750 (  2618 PWs)   bands (ev):

     3.6621   3.8312   3.8729   4.0032   4.1932   4.4953   4.6725   5.0080
     5.6393   5.6741   6.3643   8.1263   9.7252  10.8993  14.8418

          k = 0.7500 0.0000 0.7500 (  2616 PWs)   bands (ev):

     3.6461   3.8666   3.9299   3.9559   4.2443   4.6886   4.7096   4.8489
     5.6984   5.7773   6.9769   7.4078   8.3664  11.4031  15.1135

          k = 0.0000-1.0000 0.0000 (  2586 PWs)   bands (ev):

     3.7433   3.7433   4.0168   4.0168   4.3222   4.3222   4.8698   4.8698
     5.6622   5.6622   7.0435   7.0435  10.5521  10.5521  14.6730

          k =-0.2500 0.5000 0.0000 (  2623 PWs)   bands (ev):

     2.1915   3.7124   3.9677   4.0169   4.2086   4.3973   4.5763   5.1351
     5.3480   5.4575   5.7550  10.7721  11.2002  13.4593  17.0788

          k = 0.6250-0.3750 0.8750 (  2627 PWs)   bands (ev):

     3.0408   3.7417   3.8942   4.0595   4.2146   4.4108   4.6785   5.1474
     5.4900   5.5565   5.7750   8.4251  10.7447  12.3670  17.0071

          k = 0.5000-0.2500 0.7500 (  2620 PWs)   bands (ev):

     3.4755   3.7470   3.8555   4.0577   4.2512   4.3580   4.8864   5.0415
     5.6547   5.6858   6.4825   6.5094  10.7589  11.8401  16.9393

          k = 0.7500-0.2500 1.0000 (  2608 PWs)   bands (ev):

     3.3905   3.6588   3.8801   4.0422   4.3120   4.4352   4.5332   5.1290
     5.5749   5.5948   5.9696   9.1169  10.0672  10.8020  16.3646

          k = 0.6250-0.1250 0.8750 (  2621 PWs)   bands (ev):

     3.6766   3.7441   3.8723   4.0396   4.3448   4.5439   4.6753   4.9285
     5.7023   5.7539   6.6120   7.5942   9.1430  10.5033  16.5914

          k = 0.5000 0.0000 0.7500 (  2627 PWs)   bands (ev):

     3.5744   3.7680   3.8320   4.0576   4.2552   4.5944   4.6788   4.9708
     5.7131   5.7221   6.1626   8.1534   8.8080  11.2084  17.0811

          k =-0.2500-1.0000 0.0000 (  2610 PWs)   bands (ev):

     3.7194   3.7194   4.0143   4.0143   4.4092   4.4092   4.8163   4.8163
     5.7175   5.7175   7.1752   7.1752   9.7482   9.7482  16.1808

          k =-0.5000-1.0000 0.0000 (  2608 PWs)   bands (ev):

     3.6996   3.6996   4.0104   4.0104   4.5225   4.5225   4.7354   4.7354
     5.7704   5.7704   7.3890   7.3890   9.0437   9.0437  18.6859

     the Fermi energy is     6.7639 ev

!    total energy              =    -426.04208606 Ry
     Harris-Foulkes estimate   =    -426.04208608 Ry
     estimated scf accuracy    <       0.00000002 Ry

     total all-electron energy =     -6619.801622 Ry

     The total energy is the sum of the following terms:

     one-electron contribution =    -116.83303687 Ry
     hartree contribution      =      57.87644685 Ry
     xc contribution           =     -73.47394101 Ry
     ewald contribution        =    -127.80442419 Ry
     one-center paw contrib.   =    -165.80707379 Ry
     smearing contrib. (-TS)   =      -0.00005705 Ry

     convergence has been achieved in  10 iterations

     Writing output data file Cu.save

     init_run     :      2.33s CPU      2.42s WALL (       1 calls)
     electrons    :     39.89s CPU     40.84s WALL (       1 calls)

     Called by init_run:
     wfcinit      :      1.16s CPU      1.19s WALL (       1 calls)
     potinit      :      0.39s CPU      0.40s WALL (       1 calls)

     Called by electrons:
     c_bands      :     27.79s CPU     28.42s WALL (      11 calls)
     sum_band     :      6.65s CPU      6.81s WALL (      11 calls)
     v_of_rho     :      0.34s CPU      0.35s WALL (      11 calls)
     newd         :      0.71s CPU      0.72s WALL (      11 calls)
     mix_rho      :      0.92s CPU      0.93s WALL (      11 calls)

     Called by c_bands:
     init_us_2    :      0.66s CPU      0.68s WALL (     667 calls)
     cegterg      :     26.08s CPU     26.65s WALL (     319 calls)

     Called by *egterg:
     h_psi        :     22.94s CPU     23.41s WALL (     996 calls)
     s_psi        :      0.66s CPU      0.66s WALL (     996 calls)
     g_psi        :      0.18s CPU      0.18s WALL (     648 calls)
     cdiaghg      :      1.10s CPU      1.12s WALL (     938 calls)

     Called by h_psi:
     add_vuspsi   :      0.64s CPU      0.65s WALL (     996 calls)

     General routines
     calbec       :      1.00s CPU      1.00s WALL (    1315 calls)
     fft          :      0.16s CPU      0.16s WALL (     145 calls)
     fftw         :     24.02s CPU     24.55s WALL (   29475 calls)
     davcio       :      0.12s CPU      0.12s WALL (     986 calls)

     Parallel routines
     fft_scatter  :      4.91s CPU      4.82s WALL (   29620 calls)

     PAW routines
     PAW_pot      :      3.82s CPU      3.95s WALL (      11 calls)
     PAW_ddot     :      0.88s CPU      0.89s WALL (     167 calls)
     PAW_symme    :      0.02s CPU      0.02s WALL (      22 calls)

     PWSCF        :    43.28s CPU        44.37s WALL


   This run was terminated on:  20:29:46  11Jul2015            

=------------------------------------------------------------------------------=
   JOB DONE.
=------------------------------------------------------------------------------=
