
     Program PWSCF v.5.0.2 (svn rev. 9656) starts on 12Jul2015 at  2:12:32 

     This program is part of the open-source Quantum ESPRESSO suite
     for quantum simulation of materials; please cite
         "P. Giannozzi et al., J. Phys.:Condens. Matter 21 395502 (2009);
          URL http://www.quantum-espresso.org", 
     in publications or presentations arising from this work. More details at
     http://www.quantum-espresso.org/quote.php

     Parallel version (MPI), running on     4 processors
     R & G space division:  proc/nbgrp/npool/nimage =       4

     Current dimensions of program PWSCF are:
     Max number of different atomic species (ntypx) = 10
     Max number of k-points (npk) =  40000
     Max angular momentum in pseudopotentials (lmaxx) =  3
     Waiting for input...
     Reading input from standard input
               file Al.pbe-n-kjpaw_psl.0.1.UPF: wavefunction(s)  3S renormalized

     Subspace diagonalization in iterative solution of the eigenvalue problem:
     a serial algorithm will be used


     Parallelization info
     --------------------
     sticks:   dense  smooth     PW     G-vecs:    dense   smooth      PW
     Min         118     118     37                 1718     1718     309
     Max         119     119     38                 1721     1721     312
     Sum         475     475    151                 6879     6879    1243



     bravais-lattice index     =            2
     lattice parameter (alat)  =       7.6300  a.u.
     unit-cell volume          =     111.0487 (a.u.)^3
     number of atoms/cell      =            1
     number of atomic types    =            1
     number of electrons       =         3.00
     number of Kohn-Sham states=            6
     kinetic-energy cutoff     =      60.0000  Ry
     charge density cutoff     =     240.0000  Ry
     convergence threshold     =      1.0E-07
     mixing beta               =       0.7000
     number of iterations used =            8  plain     mixing
     Exchange-correlation      =  SLA  PW   PBX  PBC ( 1 4 3 4 0)
     EXX-fraction              =        0.00

     celldm(1)=   7.630000  celldm(2)=   0.000000  celldm(3)=   0.000000
     celldm(4)=   0.000000  celldm(5)=   0.000000  celldm(6)=   0.000000

     crystal axes: (cart. coord. in units of alat)
               a(1) = (  -0.500000   0.000000   0.500000 )  
               a(2) = (   0.000000   0.500000   0.500000 )  
               a(3) = (  -0.500000   0.500000   0.000000 )  

     reciprocal axes: (cart. coord. in units 2 pi/alat)
               b(1) = ( -1.000000 -1.000000  1.000000 )  
               b(2) = (  1.000000  1.000000  1.000000 )  
               b(3) = ( -1.000000  1.000000 -1.000000 )  


     PseudoPot. # 1 for Al read from file:
     ./Al.pbe-n-kjpaw_psl.0.1.UPF
     MD5 check sum: 023d9faf819c76fc4df1f064efe7b7b2
     Pseudo is Projector augmented-wave + core cor, Zval =  3.0
     Generated using "atomic" code by A. Dal Corso  v.5.0.2 svn rev. 9415
     Shape of augmentation charge: PSQ
     Using radial grid of 1135 points,  4 beta functions with: 
                l(1) =   0
                l(2) =   0
                l(3) =   1
                l(4) =   1
     Q(r) pseudized with 0 coefficients 


     atomic species   valence    mass     pseudopotential
        Al             3.00    26.98154     Al( 1.00)

     48 Sym. Ops., with inversion, found



   Cartesian axes

     site n.     atom                  positions (alat units)
         1           Al  tau(   1) = (   0.0000000   0.0000000   0.0000000  )

     number of k points=    72  gaussian smearing, width (Ry)=  0.0030
                       cart. coord. in units 2pi/alat
        k(    1) = (   0.0000000   0.0000000   0.0000000), wk =   0.0011574
        k(    2) = (  -0.0833333   0.0833333  -0.0833333), wk =   0.0092593
        k(    3) = (  -0.1666667   0.1666667  -0.1666667), wk =   0.0092593
        k(    4) = (  -0.2500000   0.2500000  -0.2500000), wk =   0.0092593
        k(    5) = (  -0.3333333   0.3333333  -0.3333333), wk =   0.0092593
        k(    6) = (  -0.4166667   0.4166667  -0.4166667), wk =   0.0092593
        k(    7) = (   0.5000000  -0.5000000   0.5000000), wk =   0.0046296
        k(    8) = (   0.0000000   0.1666667   0.0000000), wk =   0.0069444
        k(    9) = (  -0.0833333   0.2500000  -0.0833333), wk =   0.0277778
        k(   10) = (  -0.1666667   0.3333333  -0.1666667), wk =   0.0277778
        k(   11) = (  -0.2500000   0.4166667  -0.2500000), wk =   0.0277778
        k(   12) = (  -0.3333333   0.5000000  -0.3333333), wk =   0.0277778
        k(   13) = (   0.5833333  -0.4166667   0.5833333), wk =   0.0277778
        k(   14) = (   0.5000000  -0.3333333   0.5000000), wk =   0.0277778
        k(   15) = (   0.4166667  -0.2500000   0.4166667), wk =   0.0277778
        k(   16) = (   0.3333333  -0.1666667   0.3333333), wk =   0.0277778
        k(   17) = (   0.2500000  -0.0833333   0.2500000), wk =   0.0277778
        k(   18) = (   0.1666667  -0.0000000   0.1666667), wk =   0.0138889
        k(   19) = (   0.0000000   0.3333333   0.0000000), wk =   0.0069444
        k(   20) = (  -0.0833333   0.4166667  -0.0833333), wk =   0.0277778
        k(   21) = (  -0.1666667   0.5000000  -0.1666667), wk =   0.0277778
        k(   22) = (  -0.2500000   0.5833333  -0.2500000), wk =   0.0277778
        k(   23) = (   0.6666667  -0.3333333   0.6666667), wk =   0.0277778
        k(   24) = (   0.5833333  -0.2500000   0.5833333), wk =   0.0277778
        k(   25) = (   0.5000000  -0.1666667   0.5000000), wk =   0.0277778
        k(   26) = (   0.4166667  -0.0833333   0.4166667), wk =   0.0277778
        k(   27) = (   0.3333333   0.0000000   0.3333333), wk =   0.0138889
        k(   28) = (   0.0000000   0.5000000   0.0000000), wk =   0.0069444
        k(   29) = (  -0.0833333   0.5833333  -0.0833333), wk =   0.0277778
        k(   30) = (  -0.1666667   0.6666667  -0.1666667), wk =   0.0277778
        k(   31) = (   0.7500000  -0.2500000   0.7500000), wk =   0.0277778
        k(   32) = (   0.6666667  -0.1666667   0.6666667), wk =   0.0277778
        k(   33) = (   0.5833333  -0.0833333   0.5833333), wk =   0.0277778
        k(   34) = (   0.5000000   0.0000000   0.5000000), wk =   0.0138889
        k(   35) = (   0.0000000   0.6666667   0.0000000), wk =   0.0069444
        k(   36) = (  -0.0833333   0.7500000  -0.0833333), wk =   0.0277778
        k(   37) = (   0.8333333  -0.1666667   0.8333333), wk =   0.0277778
        k(   38) = (   0.7500000  -0.0833333   0.7500000), wk =   0.0277778
        k(   39) = (   0.6666667  -0.0000000   0.6666667), wk =   0.0138889
        k(   40) = (   0.0000000   0.8333333   0.0000000), wk =   0.0069444
        k(   41) = (   0.9166667  -0.0833333   0.9166667), wk =   0.0277778
        k(   42) = (   0.8333333   0.0000000   0.8333333), wk =   0.0138889
        k(   43) = (   0.0000000  -1.0000000   0.0000000), wk =   0.0034722
        k(   44) = (  -0.1666667   0.3333333   0.0000000), wk =   0.0277778
        k(   45) = (  -0.2500000   0.4166667  -0.0833333), wk =   0.0555556
        k(   46) = (  -0.3333333   0.5000000  -0.1666667), wk =   0.0555556
        k(   47) = (   0.5833333  -0.4166667   0.7500000), wk =   0.0555556
        k(   48) = (   0.5000000  -0.3333333   0.6666667), wk =   0.0277778
        k(   49) = (  -0.1666667   0.5000000   0.0000000), wk =   0.0277778
        k(   50) = (  -0.2500000   0.5833333  -0.0833333), wk =   0.0555556
        k(   51) = (   0.6666667  -0.3333333   0.8333333), wk =   0.0555556
        k(   52) = (   0.5833333  -0.2500000   0.7500000), wk =   0.0555556
        k(   53) = (   0.5000000  -0.1666667   0.6666667), wk =   0.0555556
        k(   54) = (   0.4166667  -0.0833333   0.5833333), wk =   0.0555556
        k(   55) = (   0.3333333   0.0000000   0.5000000), wk =   0.0277778
        k(   56) = (  -0.1666667   0.6666667  -0.0000000), wk =   0.0277778
        k(   57) = (   0.7500000  -0.2500000   0.9166667), wk =   0.0555556
        k(   58) = (   0.6666667  -0.1666667   0.8333333), wk =   0.0555556
        k(   59) = (   0.5833333  -0.0833333   0.7500000), wk =   0.0555556
        k(   60) = (   0.5000000   0.0000000   0.6666667), wk =   0.0277778
        k(   61) = (   0.8333333  -0.1666667   1.0000000), wk =   0.0277778
        k(   62) = (   0.7500000  -0.0833333   0.9166667), wk =   0.0555556
        k(   63) = (   0.6666667   0.0000000   0.8333333), wk =   0.0277778
        k(   64) = (  -0.1666667  -1.0000000  -0.0000000), wk =   0.0138889
        k(   65) = (   0.6666667  -0.3333333   1.0000000), wk =   0.0277778
        k(   66) = (   0.5833333  -0.2500000   0.9166667), wk =   0.0555556
        k(   67) = (   0.5000000  -0.1666667   0.8333333), wk =   0.0277778
        k(   68) = (   0.6666667  -0.1666667   1.0000000), wk =   0.0277778
        k(   69) = (   0.5833333  -0.0833333   0.9166667), wk =   0.0555556
        k(   70) = (   0.5000000   0.0000000   0.8333333), wk =   0.0277778
        k(   71) = (  -0.3333333  -1.0000000   0.0000000), wk =   0.0138889
        k(   72) = (  -0.5000000  -1.0000000   0.0000000), wk =   0.0069444

     Dense  grid:     6879 G-vectors     FFT dimensions: (  27,  27,  27)

     Largest allocated arrays     est. size (Mb)     dimensions
        Kohn-Sham Wavefunctions         0.02 Mb     (    229,    6)
        NL pseudopotentials             0.03 Mb     (    229,    8)
        Each V/rho on FFT grid          0.08 Mb     (   5103)
        Each G-vector array             0.01 Mb     (   1720)
        G-vector shells                 0.00 Mb     (    119)
     Largest temporary arrays     est. size (Mb)     dimensions
        Auxiliary wavefunctions         0.08 Mb     (    229,   24)
        Each subspace H/S matrix        0.01 Mb     (  24,  24)
        Each <psi_i|beta_j> matrix      0.00 Mb     (      8,    6)
        Arrays for rho mixing           0.62 Mb     (   5103,   8)

     Initial potential from superposition of free atoms

     starting charge    2.99771, renormalised to    3.00000
     Starting wfc are    4 randomized atomic wfcs
     Checking if some PAW data can be deallocated... 

     total cpu time spent up to now is        1.0 secs

     per-process dynamical memory:     9.1 Mb

     Self-consistent Calculation

     iteration #  1     ecut=    60.00 Ry     beta=0.70
     Davidson diagonalization with overlap
     ethr =  1.00E-02,  avg # of iterations =  4.9

     Threshold (ethr) on eigenvalues was too large:
     Diagonalizing with lowered threshold

     Davidson diagonalization with overlap
     ethr =  1.93E-04,  avg # of iterations =  2.2

     total cpu time spent up to now is        3.2 secs

     total energy              =     -39.50358491 Ry
     Harris-Foulkes estimate   =     -39.50493792 Ry
     estimated scf accuracy    <       0.00549633 Ry

     iteration #  2     ecut=    60.00 Ry     beta=0.70
     Davidson diagonalization with overlap
     ethr =  1.83E-04,  avg # of iterations =  1.2

     total cpu time spent up to now is        4.0 secs

     total energy              =     -39.50354461 Ry
     Harris-Foulkes estimate   =     -39.50364823 Ry
     estimated scf accuracy    <       0.00040344 Ry

     iteration #  3     ecut=    60.00 Ry     beta=0.70
     Davidson diagonalization with overlap
     ethr =  1.34E-05,  avg # of iterations =  1.6

     total cpu time spent up to now is        4.8 secs

     total energy              =     -39.50356404 Ry
     Harris-Foulkes estimate   =     -39.50356457 Ry
     estimated scf accuracy    <       0.00000128 Ry

     iteration #  4     ecut=    60.00 Ry     beta=0.70
     Davidson diagonalization with overlap
     ethr =  4.25E-08,  avg # of iterations =  3.2

     total cpu time spent up to now is        5.8 secs

     End of self-consistent calculation

          k = 0.0000 0.0000 0.0000 (   893 PWs)   bands (ev):

    -3.2229  20.5722  20.5722  22.0518  22.0518  22.0518

          k =-0.0833 0.0833-0.0833 (   881 PWs)   bands (ev):

    -3.0338  17.9518  20.0004  20.0004  22.7189  22.9117

          k =-0.1667 0.1667-0.1667 (   887 PWs)   bands (ev):

    -2.4680  14.5866  19.2988  19.2988  22.5361  23.9747

          k =-0.2500 0.2500-0.2500 (   881 PWs)   bands (ev):

    -1.5300  11.3798  18.8565  18.8565  22.3061  22.7067

          k =-0.3333 0.3333-0.3333 (   878 PWs)   bands (ev):

    -0.2268   8.4313  18.7174  18.7174  21.3118  21.3118

          k =-0.4167 0.4167-0.4167 (   869 PWs)   bands (ev):

     1.4315   5.7791  18.8917  18.8917  20.1932  20.1933

          k = 0.5000-0.5000 0.5000 (   862 PWs)   bands (ev):

     3.3266   3.5519  19.3569  19.3569  19.4109  19.4109

          k = 0.0000 0.1667 0.0000 (   889 PWs)   bands (ev):

    -2.9708  18.8514  18.8514  19.1429  21.4822  24.1377

          k =-0.0833 0.2500-0.0833 (   892 PWs)   bands (ev):

    -2.5308  15.7928  17.9722  19.2514  21.8436  22.7610

          k =-0.1667 0.3333-0.1667 (   874 PWs)   bands (ev):

    -1.7171  12.5555  17.4008  18.9152  20.7238  23.6330

          k =-0.2500 0.4167-0.2500 (   873 PWs)   bands (ev):

    -0.5361   9.5302  17.1453  18.7098  19.1738  23.5911

          k =-0.3333 0.5000-0.3333 (   878 PWs)   bands (ev):

     1.0032   6.7835  17.2086  17.8863  18.8310  22.4019

          k = 0.5833-0.4167 0.5833 (   865 PWs)   bands (ev):

     2.8848   4.3504  16.9477  17.5924  19.2463  21.5000

          k = 0.5000-0.3333 0.5000 (   869 PWs)   bands (ev):

     2.2222   5.1230  16.3349  18.2966  19.9907  20.9072

          k = 0.4167-0.2500 0.4167 (   870 PWs)   bands (ev):

     0.4510   7.6638  16.0542  19.3147  20.6317  21.0516

          k = 0.3333-0.1667 0.3333 (   878 PWs)   bands (ev):

    -0.9701  10.5028  16.1092  20.4920  20.8088  22.4006

          k = 0.2500-0.0833 0.2500 (   889 PWs)   bands (ev):

    -2.0295  13.5865  16.5131  20.9012  22.2193  23.4504

          k = 0.1667-0.0000 0.1667 (   895 PWs)   bands (ev):

    -2.7192  16.5621  17.5166  21.0621  22.3321  23.3313

          k = 0.0000 0.3333 0.0000 (   877 PWs)   bands (ev):

    -2.2173  16.9610  16.9610  17.1107  20.2411  20.4252

          k =-0.0833 0.4167-0.0833 (   872 PWs)   bands (ev):

    -1.5300  13.9829  16.2706  17.5730  18.4028  20.6446

          k =-0.1667 0.5000-0.1667 (   874 PWs)   bands (ev):

    -0.4744  10.9401  15.9017  16.6275  17.5538  22.4579

          k =-0.2500 0.5833-0.2500 (   874 PWs)   bands (ev):

     0.9412   8.1234  15.2353  15.8544  17.5800  24.7125

          k = 0.6667-0.3333 0.6667 (   866 PWs)   bands (ev):

     2.7041   5.5967  14.1632  16.1292  17.9144  23.9287

          k = 0.5833-0.2500 0.5833 (   868 PWs)   bands (ev):

     3.3652   4.8229  13.4305  16.7264  18.5811  23.2422

          k = 0.5000-0.1667 0.5000 (   867 PWs)   bands (ev):

     1.4920   7.2301  13.0512  17.6454  19.5770  22.8584

          k = 0.4167-0.0833 0.4167 (   872 PWs)   bands (ev):

    -0.0418   9.9031  13.0643  18.8808  20.8797  22.7553

          k = 0.3333 0.0000 0.3333 (   875 PWs)   bands (ev):

    -1.2187  12.4247  13.8472  20.4100  22.4325  22.5253

          k = 0.0000 0.5000 0.0000 (   881 PWs)   bands (ev):

    -0.9703  15.4207  15.4661  15.4661  16.2049  18.9647

          k =-0.0833 0.5833-0.0833 (   862 PWs)   bands (ev):

    -0.0425  12.5986  14.3373  14.9859  16.2361  19.4730

          k =-0.1667 0.6667-0.1667 (   871 PWs)   bands (ev):

     1.2454   9.7706  12.8004  14.8286  16.4024  21.4918

          k = 0.7500-0.2500 0.7500 (   866 PWs)   bands (ev):

     2.8806   7.1776  11.5987  14.9940  16.6803  24.0505

          k = 0.6667-0.1667 0.6667 (   865 PWs)   bands (ev):

     4.7236   4.9996  10.7524  15.4823  17.2603  25.8789

          k = 0.5833-0.0833 0.5833 (   867 PWs)   bands (ev):

     2.8870   7.0966  10.3105  16.2940  18.1699  25.4019

          k = 0.5000 0.0000 0.5000 (   867 PWs)   bands (ev):

     1.2476   9.1734  10.6954  17.4285  19.3946  24.9365

          k = 0.0000 0.6667 0.0000 (   866 PWs)   bands (ev):

     0.7556  12.3207  14.1901  14.3956  14.3956  17.9180

          k =-0.0833 0.7500-0.0833 (   869 PWs)   bands (ev):

     1.9115  10.6262  11.7042  14.1290  15.2933  18.6323

          k = 0.8333-0.1667 0.8333 (   867 PWs)   bands (ev):

     3.4086   8.9628   9.4480  14.1852  15.6913  20.8807

          k = 0.7500-0.0833 0.7500 (   875 PWs)   bands (ev):

     5.1930   6.6897   8.4381  14.5642  16.2119  23.6820

          k = 0.6667-0.0000 0.6667 (   866 PWs)   bands (ev):

     4.6210   6.8529   8.3328  15.2669  17.0332  26.6370

          k = 0.0000 0.8333 0.0000 (   878 PWs)   bands (ev):

     2.9276   8.8440  13.4461  13.7534  13.7534  17.2483

          k = 0.9167-0.0833 0.9167 (   869 PWs)   bands (ev):

     4.2522   7.4286  11.2270  13.7008  14.8183  18.1961

          k = 0.8333 0.0000 0.8333 (   866 PWs)   bands (ev):

     5.4640   6.8079   8.8790  13.9708  15.4511  20.6724

          k = 0.0000-1.0000 0.0000 (   846 PWs)   bands (ev):

     5.0017   6.3339  13.1974  13.5395  13.5395  17.0188

          k =-0.1667 0.3333 0.0000 (   875 PWs)   bands (ev):

    -1.9670  14.5077  15.6889  19.9467  20.5445  21.8044

          k =-0.2500 0.4167-0.0833 (   872 PWs)   bands (ev):

    -1.0322  11.7524  14.8021  18.7808  20.1351  23.0979

          k =-0.3333 0.5000-0.1667 (   873 PWs)   bands (ev):

     0.2662   8.8721  14.5891  17.2931  20.1132  22.8388

          k = 0.5833-0.4167 0.7500 (   873 PWs)   bands (ev):

     1.9181   6.2452  14.7385  16.1306  20.3254  21.7293

          k = 0.5000-0.3333 0.6667 (   864 PWs)   bands (ev):

     3.7936   4.0422  15.0923  15.4393  20.7038  21.0405

          k =-0.1667 0.5000 0.0000 (   864 PWs)   bands (ev):

    -0.7221  12.8915  14.1592  16.4618  18.4396  20.5585

          k =-0.2500 0.5833-0.0833 (   867 PWs)   bands (ev):

     0.4502  10.3590  13.4397  14.8477  18.8982  22.0877

          k = 0.6667-0.3333 0.8333 (   867 PWs)   bands (ev):

     1.9770   7.6959  13.2613  13.7245  19.1240  24.0419

          k = 0.5833-0.2500 0.7500 (   869 PWs)   bands (ev):

     3.8380   5.2996  12.4926  13.9098  19.5781  23.3902

          k = 0.5000-0.1667 0.6667 (   866 PWs)   bands (ev):

     3.1866   6.0487  11.8990  14.6240  20.3294  22.7786

          k = 0.4167-0.0833 0.5833 (   872 PWs)   bands (ev):

     1.4304   8.5021  11.6932  15.6880  21.3642  22.4158

          k = 0.3333 0.0000 0.5000 (   876 PWs)   bands (ev):

     0.0198  10.7999  12.2854  17.0811  21.8224  22.5618

          k =-0.1667 0.6667-0.0000 (   871 PWs)   bands (ev):

     1.0007  11.7312  12.4525  13.1943  17.3132  19.5723

          k = 0.7500-0.2500 0.9167 (   875 PWs)   bands (ev):

     2.3970   9.4149  11.1049  12.6276  18.0131  21.3164

          k = 0.6667-0.1667 0.8333 (   869 PWs)   bands (ev):

     4.1260   6.9837  10.0423  12.8342  18.4743  23.9063

          k = 0.5833-0.0833 0.7500 (   872 PWs)   bands (ev):

     4.7918   6.1615   9.3653  13.4395  19.1592  25.4108

          k = 0.5000 0.0000 0.6667 (   872 PWs)   bands (ev):

     2.9462   8.0126   9.5162  14.3966  20.1354  24.5991

          k = 0.8333-0.1667 1.0000 (   870 PWs)   bands (ev):

     3.1684   9.0706  11.0334  12.4346  16.6298  18.9436

          k = 0.7500-0.0833 0.9167 (   871 PWs)   bands (ev):

     4.7256   7.8780   9.0038  12.1471  17.5615  20.9117

          k = 0.6667 0.0000 0.8333 (   875 PWs)   bands (ev):

     6.1581   6.6771   7.6542  12.6003  18.2526  23.7390

          k =-0.1667-1.0000-0.0000 (   878 PWs)   bands (ev):

     5.2328   6.5765  10.8006  12.2035  16.4012  18.7287

          k = 0.6667-0.3333 1.0000 (   869 PWs)   bands (ev):

     1.7335   9.6385  11.1088  13.3214  20.7684  22.4153

          k = 0.5833-0.2500 0.9167 (   870 PWs)   bands (ev):

     3.3627   7.5628  10.7193  12.1466  21.5690  23.0187

          k = 0.5000-0.1667 0.8333 (   874 PWs)   bands (ev):

     5.1870   5.4654  10.9362  11.5292  21.9740  22.4615

          k = 0.6667-0.1667 1.0000 (   880 PWs)   bands (ev):

     3.8881   8.9415   9.6500  10.6392  20.1028  21.9136

          k = 0.5833-0.0833 0.9167 (   873 PWs)   bands (ev):

     5.6644   7.0831   8.8422  10.4080  21.1606  24.0226

          k = 0.5000 0.0000 0.8333 (   875 PWs)   bands (ev):

     5.0772   7.3166   8.7699  11.0584  21.9809  23.9901

          k =-0.3333-1.0000 0.0000 (   878 PWs)   bands (ev):

     5.9266   7.2838   8.7092  10.2993  19.8782  21.7285

          k =-0.5000-1.0000 0.0000 (   876 PWs)   bands (ev):

     7.0848   7.0848   8.0994   9.0553  23.7764  23.7764

     the Fermi energy is     7.8337 ev

!    total energy              =     -39.50356536 Ry
     Harris-Foulkes estimate   =     -39.50356541 Ry
     estimated scf accuracy    <       0.00000010 Ry

     total all-electron energy =      -485.646347 Ry

     The total energy is the sum of the following terms:

     one-electron contribution =       3.16821981 Ry
     hartree contribution      =       0.00582910 Ry
     xc contribution           =      -3.03177586 Ry
     ewald contribution        =      -5.40809419 Ry
     one-center paw contrib.   =     -34.23772972 Ry
     smearing contrib. (-TS)   =      -0.00001449 Ry

     convergence has been achieved in   4 iterations

     Writing output data file Al.save

     init_run     :      0.59s CPU      0.63s WALL (       1 calls)
     electrons    :      4.61s CPU      4.74s WALL (       1 calls)

     Called by init_run:
     wfcinit      :      0.26s CPU      0.28s WALL (       1 calls)
     potinit      :      0.06s CPU      0.07s WALL (       1 calls)

     Called by electrons:
     c_bands      :      3.66s CPU      3.77s WALL (       5 calls)
     sum_band     :      0.66s CPU      0.68s WALL (       5 calls)
     v_of_rho     :      0.04s CPU      0.04s WALL (       5 calls)
     newd         :      0.02s CPU      0.02s WALL (       5 calls)
     mix_rho      :      0.02s CPU      0.02s WALL (       5 calls)

     Called by c_bands:
     init_us_2    :      0.14s CPU      0.12s WALL (     792 calls)
     cegterg      :      3.54s CPU      3.65s WALL (     360 calls)

     Called by *egterg:
     h_psi        :      3.18s CPU      3.29s WALL (    1384 calls)
     s_psi        :      0.03s CPU      0.03s WALL (    1384 calls)
     g_psi        :      0.02s CPU      0.03s WALL (     952 calls)
     cdiaghg      :      0.27s CPU      0.25s WALL (    1240 calls)

     Called by h_psi:
     add_vuspsi   :      0.04s CPU      0.04s WALL (    1384 calls)

     General routines
     calbec       :      0.06s CPU      0.08s WALL (    1744 calls)
     fft          :      0.03s CPU      0.03s WALL (      67 calls)
     fftw         :      3.50s CPU      3.41s WALL (   14502 calls)
     davcio       :      0.02s CPU      0.03s WALL (    1152 calls)

     Parallel routines
     fft_scatter  :      0.53s CPU      0.67s WALL (   14569 calls)

     PAW routines
     PAW_pot      :      0.26s CPU      0.26s WALL (       5 calls)
     PAW_ddot     :      0.02s CPU      0.02s WALL (      12 calls)
     PAW_symme    :      0.00s CPU      0.00s WALL (      10 calls)

     PWSCF        :     5.91s CPU         6.12s WALL


   This run was terminated on:   2:12:38  12Jul2015            

=------------------------------------------------------------------------------=
   JOB DONE.
=------------------------------------------------------------------------------=
