
     Program PWSCF v.5.0.2 (svn rev. 9656) starts on 26Jul2015 at  2: 8:35 

     This program is part of the open-source Quantum ESPRESSO suite
     for quantum simulation of materials; please cite
         "P. Giannozzi et al., J. Phys.:Condens. Matter 21 395502 (2009);
          URL http://www.quantum-espresso.org", 
     in publications or presentations arising from this work. More details at
     http://www.quantum-espresso.org/quote.php

     Parallel version (MPI), running on     4 processors
     R & G space division:  proc/nbgrp/npool/nimage =       4

     Current dimensions of program PWSCF are:
     Max number of different atomic species (ntypx) = 10
     Max number of k-points (npk) =  40000
     Max angular momentum in pseudopotentials (lmaxx) =  3
     Waiting for input...
     Reading input from standard input
               file C.pbe-rrkjus.UPF: wavefunction(s)  2S 2P renormalized

     Subspace diagonalization in iterative solution of the eigenvalue problem:
     a serial algorithm will be used


     Parallelization info
     --------------------
     sticks:   dense  smooth     PW     G-vecs:    dense   smooth      PW
     Min         211      78     27                58589    14252    2607
     Max         212      79     28                58614    14319    2630
     Sum         847     313    109               234415    57119   10457



     bravais-lattice index     =            0
     lattice parameter (alat)  =       4.6500  a.u.
     unit-cell volume          =    1044.8904 (a.u.)^3
     number of atoms/cell      =            2
     number of atomic types    =            1
     number of electrons       =         8.00
     number of Kohn-Sham states=            8
     kinetic-energy cutoff     =      55.0000  Ry
     charge density cutoff     =     560.0000  Ry
     convergence threshold     =      1.0E-08
     mixing beta               =       0.7000
     number of iterations used =            8  plain     mixing
     Exchange-correlation      =  SLA  PW   PBE  PBE ( 1 4 3 4 0)
     EXX-fraction              =        0.00

     celldm(1)=   4.650000  celldm(2)=   0.000000  celldm(3)=   0.000000
     celldm(4)=   0.000000  celldm(5)=   0.000000  celldm(6)=   0.000000

     crystal axes: (cart. coord. in units of alat)
               a(1) = (   1.000000   0.000000   0.000000 )  
               a(2) = (   0.500000   0.866025   0.000000 )  
               a(3) = (   0.000000   0.000000  12.000000 )  

     reciprocal axes: (cart. coord. in units 2 pi/alat)
               b(1) = (  1.000000 -0.577350  0.000000 )  
               b(2) = (  0.000000  1.154701  0.000000 )  
               b(3) = (  0.000000  0.000000  0.083333 )  


     PseudoPot. # 1 for C  read from file:
     ./C.pbe-rrkjus.UPF
     MD5 check sum: 00fb224312de0c5b6853bd333518df6f
     Pseudo is Ultrasoft, Zval =  4.0
     Generated by new atomic code, or converted to UPF format
     Using radial grid of  627 points,  4 beta functions with: 
                l(1) =   0
                l(2) =   0
                l(3) =   1
                l(4) =   1
     Q(r) pseudized with 0 coefficients 


     atomic species   valence    mass     pseudopotential
        C              4.00    12.00000     C ( 1.00)

     24 Sym. Ops., with inversion, found (12 have fractional translation)



   Cartesian axes

     site n.     atom                  positions (alat units)
         1           C   tau(   1) = (   0.0000000   0.0000000   0.0000000  )
         2           C   tau(   2) = (   1.0000000   0.5773503   0.0000000  )

     number of k points=    14  gaussian smearing, width (Ry)=  0.0010
                       cart. coord. in units 2pi/alat
        k(    1) = (   0.0000000   0.0000000   0.0000000), wk =   0.0200000
        k(    2) = (   0.0000000   0.1154701   0.0000000), wk =   0.1200000
        k(    3) = (   0.0000000   0.2309401   0.0000000), wk =   0.1200000
        k(    4) = (   0.0000000   0.3464102   0.0000000), wk =   0.1200000
        k(    5) = (   0.0000000   0.4618802   0.0000000), wk =   0.1200000
        k(    6) = (   0.0000000  -0.5773503   0.0000000), wk =   0.0600000
        k(    7) = (   0.1000000   0.1732051   0.0000000), wk =   0.1200000
        k(    8) = (   0.1000000   0.2886751   0.0000000), wk =   0.2400000
        k(    9) = (   0.1000000   0.4041452   0.0000000), wk =   0.2400000
        k(   10) = (   0.1000000  -0.6350853   0.0000000), wk =   0.2400000
        k(   11) = (   0.2000000   0.3464102   0.0000000), wk =   0.1200000
        k(   12) = (   0.2000000  -0.6928203   0.0000000), wk =   0.2400000
        k(   13) = (   0.2000000  -0.5773503   0.0000000), wk =   0.1200000
        k(   14) = (   0.3000000  -0.6350853   0.0000000), wk =   0.1200000

     Dense  grid:   234415 G-vectors     FFT dimensions: (  36,  36, 432)

     Smooth grid:    57119 G-vectors     FFT dimensions: (  24,  24, 270)

     Largest allocated arrays     est. size (Mb)     dimensions
        Kohn-Sham Wavefunctions         0.23 Mb     (   1856,    8)
        NL pseudopotentials             0.45 Mb     (   1856,   16)
        Each V/rho on FFT grid          2.14 Mb     ( 139968)
        Each G-vector array             0.45 Mb     (  58604)
        G-vector shells                 0.13 Mb     (  17455)
     Largest temporary arrays     est. size (Mb)     dimensions
        Auxiliary wavefunctions         0.91 Mb     (   1856,   32)
        Each subspace H/S matrix        0.02 Mb     (  32,  32)
        Each <psi_i|beta_j> matrix      0.00 Mb     (     16,    8)
        Arrays for rho mixing          17.09 Mb     ( 139968,   8)

     Initial potential from superposition of free atoms

     starting charge    7.99989, renormalised to    8.00000

     negative rho (up, down):  0.254E-04 0.000E+00
     Starting wfc are    8 randomized atomic wfcs

     total cpu time spent up to now is        2.9 secs

     per-process dynamical memory:    36.4 Mb

     Self-consistent Calculation

     iteration #  1     ecut=    55.00 Ry     beta=0.70
     Davidson diagonalization with overlap
     ethr =  1.00E-02,  avg # of iterations =  5.4

     negative rho (up, down):  0.178E-04 0.000E+00

     total cpu time spent up to now is        7.2 secs

     total energy              =     -22.75991046 Ry
     Harris-Foulkes estimate   =     -22.88433983 Ry
     estimated scf accuracy    <       0.20651684 Ry

     iteration #  2     ecut=    55.00 Ry     beta=0.70
     Davidson diagonalization with overlap
     ethr =  2.58E-03,  avg # of iterations =  4.0

     negative rho (up, down):  0.169E-04 0.000E+00

     total cpu time spent up to now is       10.5 secs

     total energy              =     -22.79103214 Ry
     Harris-Foulkes estimate   =     -22.79116883 Ry
     estimated scf accuracy    <       0.00251208 Ry

     iteration #  3     ecut=    55.00 Ry     beta=0.70
     Davidson diagonalization with overlap
     ethr =  3.14E-05,  avg # of iterations = 10.9

     negative rho (up, down):  0.186E-04 0.000E+00

     total cpu time spent up to now is       15.6 secs

     total energy              =     -22.79139212 Ry
     Harris-Foulkes estimate   =     -22.79136204 Ry
     estimated scf accuracy    <       0.00013830 Ry

     iteration #  4     ecut=    55.00 Ry     beta=0.70
     Davidson diagonalization with overlap
     ethr =  1.73E-06,  avg # of iterations =  4.7

     negative rho (up, down):  0.187E-04 0.000E+00

     total cpu time spent up to now is       19.1 secs

     total energy              =     -22.79139753 Ry
     Harris-Foulkes estimate   =     -22.79139671 Ry
     estimated scf accuracy    <       0.00000092 Ry

     iteration #  5     ecut=    55.00 Ry     beta=0.70
     Davidson diagonalization with overlap
     ethr =  1.15E-08,  avg # of iterations =  2.4

     negative rho (up, down):  0.187E-04 0.000E+00

     total cpu time spent up to now is       22.3 secs

     total energy              =     -22.79139783 Ry
     Harris-Foulkes estimate   =     -22.79139782 Ry
     estimated scf accuracy    <       0.00000002 Ry

     iteration #  6     ecut=    55.00 Ry     beta=0.70
     Davidson diagonalization with overlap
     ethr =  3.02E-10,  avg # of iterations =  2.0

     negative rho (up, down):  0.186E-04 0.000E+00

     total cpu time spent up to now is       25.3 secs

     End of self-consistent calculation

          k = 0.0000 0.0000 0.0000 (  7331 PWs)   bands (ev):

   -22.4921 -10.6022  -6.0253  -6.0253   0.3035   1.0417   1.2091   1.5613

          k = 0.0000 0.1155 0.0000 (  7311 PWs)   bands (ev):

   -22.2556 -10.3192  -6.9384  -6.4997   0.6255   1.3690   1.5400   1.8906

          k = 0.0000 0.2309 0.0000 (  7251 PWs)   bands (ev):

   -21.5500  -9.4816  -9.1122  -7.5177   1.5909   2.3481   2.5330   2.8772

          k = 0.0000 0.3464 0.0000 (  7210 PWs)   bands (ev):

   -20.3881 -11.7243  -8.5084  -8.1358   2.8942   3.1928   4.0081   4.1874

          k = 0.0000 0.4619 0.0000 (  7170 PWs)   bands (ev):

   -18.8032 -14.3009  -9.1786  -6.4462   0.2228   4.6047   5.4557   6.2613

          k = 0.0000-0.5774 0.0000 (  7076 PWs)   bands (ev):

   -17.2302 -16.2214  -9.4122  -5.3195  -1.2675   4.5012   8.1869   8.3398

          k = 0.1000 0.1732 0.0000 (  7269 PWs)   bands (ev):

   -21.7846  -9.7585  -8.2827  -7.4482   1.2697   2.0226   2.2020   2.5487

          k = 0.1000 0.2887 0.0000 (  7219 PWs)   bands (ev):

   -20.8508 -10.4393  -8.6934  -8.6625   2.5559   3.3174   3.5259   3.8506

          k = 0.1000 0.4041 0.0000 (  7179 PWs)   bands (ev):

   -19.4755 -12.9484  -9.6112  -7.1127   1.3920   4.4705   5.2760   5.5105

          k = 0.1000-0.6351 0.0000 (  7134 PWs)   bands (ev):

   -17.7351 -15.3318 -10.0882  -5.4652  -0.8834   5.5377   7.0159   7.8024

          k = 0.2000 0.3464 0.0000 (  7217 PWs)   bands (ev):

   -19.7031 -11.9060 -10.4565  -7.3456   1.9672   4.1575   4.9306   5.1807

          k = 0.2000-0.6928 0.0000 (  7175 PWs)   bands (ev):

   -18.1480 -13.9006 -11.5281  -5.6683  -0.2387   6.3681   7.0574   7.4966

          k = 0.2000-0.5774 0.0000 (  7140 PWs)   bands (ev):

   -16.6245 -15.6598 -11.8316  -4.4571  -1.6465   7.9220   8.4064   8.9787

          k = 0.3000-0.6351 0.0000 (  7188 PWs)   bands (ev):

   -16.5135 -14.8218 -13.1728  -3.9786  -1.9346   7.8047   8.7516  10.0947

     the Fermi energy is    -2.1185 ev

!    total energy              =     -22.79139783 Ry
     Harris-Foulkes estimate   =     -22.79139783 Ry
     estimated scf accuracy    <          7.1E-10 Ry

     The total energy is the sum of the following terms:

     one-electron contribution =    -353.76070541 Ry
     hartree contribution      =     177.88972124 Ry
     xc contribution           =      -7.02465509 Ry
     ewald contribution        =     160.10424143 Ry
     smearing contrib. (-TS)   =      -0.00000000 Ry

     convergence has been achieved in   6 iterations

     Writing output data file graphene.save

     init_run     :      2.74s CPU      2.86s WALL (       1 calls)
     electrons    :     21.63s CPU     22.33s WALL (       1 calls)

     Called by init_run:
     wfcinit      :      0.74s CPU      0.77s WALL (       1 calls)
     potinit      :      0.90s CPU      0.93s WALL (       1 calls)

     Called by electrons:
     c_bands      :     13.69s CPU     14.06s WALL (       6 calls)
     sum_band     :      4.32s CPU      4.48s WALL (       6 calls)
     v_of_rho     :      1.77s CPU      1.84s WALL (       7 calls)
     newd         :      1.68s CPU      1.76s WALL (       7 calls)
     mix_rho      :      0.24s CPU      0.24s WALL (       6 calls)

     Called by c_bands:
     init_us_2    :      0.22s CPU      0.24s WALL (     182 calls)
     cegterg      :     13.39s CPU     13.73s WALL (      84 calls)

     Called by *egterg:
     h_psi        :     12.59s CPU     12.89s WALL (     508 calls)
     s_psi        :      0.17s CPU      0.16s WALL (     508 calls)
     g_psi        :      0.08s CPU      0.09s WALL (     410 calls)
     cdiaghg      :      0.17s CPU      0.18s WALL (     494 calls)

     Called by h_psi:
     add_vuspsi   :      0.18s CPU      0.18s WALL (     508 calls)

     General routines
     calbec       :      0.33s CPU      0.33s WALL (     592 calls)
     fft          :      1.64s CPU      1.75s WALL (     107 calls)
     ffts         :      0.04s CPU      0.05s WALL (      13 calls)
     fftw         :      9.34s CPU      9.61s WALL (    5122 calls)
     interpolate  :      0.29s CPU      0.30s WALL (      13 calls)
     davcio       :      0.06s CPU      0.07s WALL (     266 calls)

     Parallel routines
     fft_scatter  :      4.64s CPU      4.90s WALL (    5242 calls)

     PWSCF        :    24.59s CPU        25.45s WALL


   This run was terminated on:   2: 9: 1  26Jul2015            

=------------------------------------------------------------------------------=
   JOB DONE.
=------------------------------------------------------------------------------=
