
     Program PWSCF v.5.0.2 (svn rev. 9656) starts on 12Jul2015 at  2:38:39 

     This program is part of the open-source Quantum ESPRESSO suite
     for quantum simulation of materials; please cite
         "P. Giannozzi et al., J. Phys.:Condens. Matter 21 395502 (2009);
          URL http://www.quantum-espresso.org", 
     in publications or presentations arising from this work. More details at
     http://www.quantum-espresso.org/quote.php

     Parallel version (MPI), running on     4 processors
     R & G space division:  proc/nbgrp/npool/nimage =       4

     Current dimensions of program PWSCF are:
     Max number of different atomic species (ntypx) = 10
     Max number of k-points (npk) =  40000
     Max angular momentum in pseudopotentials (lmaxx) =  3
     Waiting for input...
     Reading input from standard input
               file Al.pbe-n-kjpaw_psl.0.1.UPF: wavefunction(s)  3S renormalized

     Subspace diagonalization in iterative solution of the eigenvalue problem:
     a serial algorithm will be used


     Parallelization info
     --------------------
     sticks:   dense  smooth     PW     G-vecs:    dense   smooth      PW
     Min         211     211     63                 4064     4064     682
     Max         212     212     64                 4067     4067     686
     Sum         847     847    253                16265    16265    2733



     bravais-lattice index     =            2
     lattice parameter (alat)  =       7.6300  a.u.
     unit-cell volume          =     111.0487 (a.u.)^3
     number of atoms/cell      =            1
     number of atomic types    =            1
     number of electrons       =         3.00
     number of Kohn-Sham states=            6
     kinetic-energy cutoff     =     105.0000  Ry
     charge density cutoff     =     420.0000  Ry
     convergence threshold     =      1.0E-07
     mixing beta               =       0.7000
     number of iterations used =            8  plain     mixing
     Exchange-correlation      =  SLA  PW   PBX  PBC ( 1 4 3 4 0)
     EXX-fraction              =        0.00

     celldm(1)=   7.630000  celldm(2)=   0.000000  celldm(3)=   0.000000
     celldm(4)=   0.000000  celldm(5)=   0.000000  celldm(6)=   0.000000

     crystal axes: (cart. coord. in units of alat)
               a(1) = (  -0.500000   0.000000   0.500000 )  
               a(2) = (   0.000000   0.500000   0.500000 )  
               a(3) = (  -0.500000   0.500000   0.000000 )  

     reciprocal axes: (cart. coord. in units 2 pi/alat)
               b(1) = ( -1.000000 -1.000000  1.000000 )  
               b(2) = (  1.000000  1.000000  1.000000 )  
               b(3) = ( -1.000000  1.000000 -1.000000 )  


     PseudoPot. # 1 for Al read from file:
     ./Al.pbe-n-kjpaw_psl.0.1.UPF
     MD5 check sum: 023d9faf819c76fc4df1f064efe7b7b2
     Pseudo is Projector augmented-wave + core cor, Zval =  3.0
     Generated using "atomic" code by A. Dal Corso  v.5.0.2 svn rev. 9415
     Shape of augmentation charge: PSQ
     Using radial grid of 1135 points,  4 beta functions with: 
                l(1) =   0
                l(2) =   0
                l(3) =   1
                l(4) =   1
     Q(r) pseudized with 0 coefficients 


     atomic species   valence    mass     pseudopotential
        Al             3.00    26.98154     Al( 1.00)

     48 Sym. Ops., with inversion, found



   Cartesian axes

     site n.     atom                  positions (alat units)
         1           Al  tau(   1) = (   0.0000000   0.0000000   0.0000000  )

     number of k points=    20  gaussian smearing, width (Ry)=  0.0030
                       cart. coord. in units 2pi/alat
        k(    1) = (   0.0000000   0.0000000   0.0000000), wk =   0.0058309
        k(    2) = (  -0.1428571   0.1428571  -0.1428571), wk =   0.0466472
        k(    3) = (  -0.2857143   0.2857143  -0.2857143), wk =   0.0466472
        k(    4) = (  -0.4285714   0.4285714  -0.4285714), wk =   0.0466472
        k(    5) = (   0.0000000   0.2857143   0.0000000), wk =   0.0349854
        k(    6) = (  -0.1428571   0.4285714  -0.1428571), wk =   0.1399417
        k(    7) = (  -0.2857143   0.5714286  -0.2857143), wk =   0.1399417
        k(    8) = (   0.5714286  -0.2857143   0.5714286), wk =   0.1399417
        k(    9) = (   0.4285714  -0.1428571   0.4285714), wk =   0.1399417
        k(   10) = (   0.2857143  -0.0000000   0.2857143), wk =   0.0699708
        k(   11) = (   0.0000000   0.5714286   0.0000000), wk =   0.0349854
        k(   12) = (  -0.1428571   0.7142857  -0.1428571), wk =   0.1399417
        k(   13) = (   0.7142857  -0.1428571   0.7142857), wk =   0.1399417
        k(   14) = (   0.5714286   0.0000000   0.5714286), wk =   0.0699708
        k(   15) = (   0.0000000   0.8571429   0.0000000), wk =   0.0349854
        k(   16) = (   0.8571429  -0.0000000   0.8571429), wk =   0.0699708
        k(   17) = (  -0.2857143   0.5714286   0.0000000), wk =   0.1399417
        k(   18) = (   0.5714286  -0.2857143   0.8571429), wk =   0.2798834
        k(   19) = (   0.7142857  -0.1428571   1.0000000), wk =   0.1399417
        k(   20) = (   0.5714286   0.0000000   0.8571429), wk =   0.1399417

     Dense  grid:    16265 G-vectors     FFT dimensions: (  36,  36,  36)

     Largest allocated arrays     est. size (Mb)     dimensions
        Kohn-Sham Wavefunctions         0.05 Mb     (    515,    6)
        NL pseudopotentials             0.06 Mb     (    515,    8)
        Each V/rho on FFT grid          0.18 Mb     (  11664)
        Each G-vector array             0.03 Mb     (   4067)
        G-vector shells                 0.00 Mb     (    209)
     Largest temporary arrays     est. size (Mb)     dimensions
        Auxiliary wavefunctions         0.19 Mb     (    515,   24)
        Each subspace H/S matrix        0.01 Mb     (  24,  24)
        Each <psi_i|beta_j> matrix      0.00 Mb     (      8,    6)
        Arrays for rho mixing           1.42 Mb     (  11664,   8)

     Initial potential from superposition of free atoms

     starting charge    2.99771, renormalised to    3.00000
     Starting wfc are    4 randomized atomic wfcs
     Checking if some PAW data can be deallocated... 

     total cpu time spent up to now is        1.8 secs

     per-process dynamical memory:    10.1 Mb

     Self-consistent Calculation

     iteration #  1     ecut=   105.00 Ry     beta=0.70
     Davidson diagonalization with overlap
     ethr =  1.00E-02,  avg # of iterations =  5.2

     Threshold (ethr) on eigenvalues was too large:
     Diagonalizing with lowered threshold

     Davidson diagonalization with overlap
     ethr =  2.05E-04,  avg # of iterations =  2.0

     total cpu time spent up to now is        5.5 secs

     total energy              =     -39.50639585 Ry
     Harris-Foulkes estimate   =     -39.50777141 Ry
     estimated scf accuracy    <       0.00582410 Ry

     iteration #  2     ecut=   105.00 Ry     beta=0.70
     Davidson diagonalization with overlap
     ethr =  1.94E-04,  avg # of iterations =  1.1

     total cpu time spent up to now is        7.0 secs

     total energy              =     -39.50635497 Ry
     Harris-Foulkes estimate   =     -39.50646213 Ry
     estimated scf accuracy    <       0.00043379 Ry

     iteration #  3     ecut=   105.00 Ry     beta=0.70
     Davidson diagonalization with overlap
     ethr =  1.45E-05,  avg # of iterations =  1.9

     total cpu time spent up to now is        8.7 secs

     total energy              =     -39.50637640 Ry
     Harris-Foulkes estimate   =     -39.50637698 Ry
     estimated scf accuracy    <       0.00000140 Ry

     iteration #  4     ecut=   105.00 Ry     beta=0.70
     Davidson diagonalization with overlap
     ethr =  4.65E-08,  avg # of iterations =  4.2

     total cpu time spent up to now is       10.6 secs

     total energy              =     -39.50637752 Ry
     Harris-Foulkes estimate   =     -39.50637756 Ry
     estimated scf accuracy    <       0.00000011 Ry

     iteration #  5     ecut=   105.00 Ry     beta=0.70
     Davidson diagonalization with overlap
     ethr =  3.51E-09,  avg # of iterations =  1.1

     total cpu time spent up to now is       11.8 secs

     End of self-consistent calculation

          k = 0.0000 0.0000 0.0000 (  1989 PWs)   bands (ev):

    -3.2237  20.5717  20.5717  22.0483  22.0483  22.0483

          k =-0.1429 0.1429-0.1429 (  2016 PWs)   bands (ev):

    -2.6687  15.5390  19.4754  19.4755  22.6123  23.8481

          k =-0.2857 0.2857-0.2857 (  2012 PWs)   bands (ev):

    -1.0166  10.0809  18.7572  18.7572  22.0787  22.0787

          k =-0.4286 0.4286-0.4286 (  2027 PWs)   bands (ev):

     1.6957   5.4251  18.9406  18.9406  20.0568  20.0568

          k = 0.0000 0.2857 0.0000 (  2017 PWs)   bands (ev):

    -2.4842  17.4619  17.4619  17.6682  20.6235  21.6562

          k =-0.1429 0.4286-0.1429 (  2015 PWs)   bands (ev):

    -1.1993  12.2237  16.3748  17.9068  18.3327  22.2111

          k =-0.2857 0.5714-0.2857 (  2016 PWs)   bands (ev):

     1.1567   7.3301  15.8093  16.2299  17.9735  24.0064

          k = 0.5714-0.2857 0.5714 (  2004 PWs)   bands (ev):

     3.2911   4.5495  14.3227  17.0306  18.8723  22.6168

          k = 0.4286-0.1429 0.4286 (  2020 PWs)   bands (ev):

     0.2555   8.8513  13.8520  18.7723  20.7296  22.1191

          k = 0.2857-0.0000 0.2857 (  2011 PWs)   bands (ev):

    -1.7485  13.5209  14.8589  21.3541  22.0083  23.3724

          k = 0.0000 0.5714 0.0000 (  2016 PWs)   bands (ev):

    -0.2889  14.4939  14.8358  14.9531  14.9531  18.4734

          k =-0.1429 0.7143-0.1429 (  2027 PWs)   bands (ev):

     1.6908  10.1624  11.6537  14.4843  15.9712  20.4941

          k = 0.7143-0.1429 0.7143 (  2016 PWs)   bands (ev):

     4.6642   5.9416   9.8070  14.9642  16.6761  25.0568

          k = 0.5714 0.0000 0.5714 (  2019 PWs)   bands (ev):

     2.5867   8.0643   9.5738  16.3948  18.2865  26.2449

          k = 0.0000 0.8571 0.0000 (  2016 PWs)   bands (ev):

     3.2678   8.3862  13.3813  13.6948  13.6948  17.1849

          k = 0.8571-0.0000 0.8571 (  2026 PWs)   bands (ev):

     5.3410   6.6846   9.5211  13.8545  15.2682  19.8783

          k =-0.2857 0.5714 0.0000 (  2022 PWs)   bands (ev):

     0.4356  10.7954  12.2511  15.2066  20.3134  22.0526

          k = 0.5714-0.2857 0.8571 (  2016 PWs)   bands (ev):

     3.1151   6.7774  11.8039  13.0727  21.2257  22.4979

          k = 0.7143-0.1429 1.0000 (  2024 PWs)   bands (ev):

     3.9716   9.0405   9.4297  11.0114  19.0054  20.9708

          k = 0.5714 0.0000 0.8571 (  2020 PWs)   bands (ev):

     6.0512   6.7013   8.1588  11.2300  20.6414  25.0689

     the Fermi energy is     8.0733 ev

!    total energy              =     -39.50637751 Ry
     Harris-Foulkes estimate   =     -39.50637753 Ry
     estimated scf accuracy    <       0.00000005 Ry

     total all-electron energy =      -485.649159 Ry

     The total energy is the sum of the following terms:

     one-electron contribution =       3.16452246 Ry
     hartree contribution      =       0.00632378 Ry
     xc contribution           =      -3.03179898 Ry
     ewald contribution        =      -5.40809419 Ry
     one-center paw contrib.   =     -34.23727269 Ry
     smearing contrib. (-TS)   =      -0.00005790 Ry

     convergence has been achieved in   5 iterations

     Writing output data file Al.save

     init_run     :      0.72s CPU      1.24s WALL (       1 calls)
     electrons    :      4.12s CPU     10.05s WALL (       1 calls)

     Called by init_run:
     wfcinit      :      0.19s CPU      0.42s WALL (       1 calls)
     potinit      :      0.10s CPU      0.18s WALL (       1 calls)

     Called by electrons:
     c_bands      :      2.95s CPU      7.37s WALL (       6 calls)
     sum_band     :      0.65s CPU      1.58s WALL (       6 calls)
     v_of_rho     :      0.15s CPU      0.28s WALL (       6 calls)
     newd         :      0.06s CPU      0.11s WALL (       6 calls)
     mix_rho      :      0.06s CPU      0.12s WALL (       6 calls)

     Called by c_bands:
     init_us_2    :      0.09s CPU      0.10s WALL (     260 calls)
     cegterg      :      2.87s CPU      7.27s WALL (     120 calls)

     Called by *egterg:
     h_psi        :      2.68s CPU      6.79s WALL (     447 calls)
     s_psi        :      0.02s CPU      0.03s WALL (     447 calls)
     g_psi        :      0.02s CPU      0.02s WALL (     307 calls)
     cdiaghg      :      0.11s CPU      0.24s WALL (     407 calls)

     Called by h_psi:
     add_vuspsi   :      0.02s CPU      0.03s WALL (     447 calls)

     General routines
     calbec       :      0.07s CPU      0.23s WALL (     567 calls)
     fft          :      0.11s CPU      0.30s WALL (      80 calls)
     fftw         :      2.89s CPU      7.49s WALL (    4696 calls)
     davcio       :      0.01s CPU      0.02s WALL (     380 calls)

     Parallel routines
     fft_scatter  :      1.22s CPU      5.37s WALL (    4776 calls)

     PAW routines
     PAW_pot      :      0.31s CPU      0.64s WALL (       6 calls)
     PAW_ddot     :      0.04s CPU      0.07s WALL (      22 calls)
     PAW_symme    :      0.00s CPU      0.00s WALL (      12 calls)

     PWSCF        :     5.47s CPU        12.14s WALL


   This run was terminated on:   2:38:51  12Jul2015            

=------------------------------------------------------------------------------=
   JOB DONE.
=------------------------------------------------------------------------------=
