
     Program PWSCF v.5.0.2 (svn rev. 9656) starts on  4Aug2015 at  9:15:25 

     This program is part of the open-source Quantum ESPRESSO suite
     for quantum simulation of materials; please cite
         "P. Giannozzi et al., J. Phys.:Condens. Matter 21 395502 (2009);
          URL http://www.quantum-espresso.org", 
     in publications or presentations arising from this work. More details at
     http://www.quantum-espresso.org/quote.php

     Parallel version (MPI), running on     1 processors

     Current dimensions of program PWSCF are:
     Max number of different atomic species (ntypx) = 10
     Max number of k-points (npk) =  40000
     Max angular momentum in pseudopotentials (lmaxx) =  3
     Waiting for input...
     Reading input from standard input
               file Cu.pbe.UPF: wavefunction(s)  4S 3D renormalized

     Subspace diagonalization in iterative solution of the eigenvalue problem:
     a serial algorithm will be used


     G-vector sticks info
     --------------------
     sticks:   dense  smooth     PW     G-vecs:    dense   smooth      PW
     Sum         433     433    139                 5961     5961    1067



     bravais-lattice index     =            2
     lattice parameter (alat)  =       7.2300  a.u.
     unit-cell volume          =      94.4833 (a.u.)^3
     number of atoms/cell      =            2
     number of atomic types    =            1
     number of electrons       =        22.00
     number of Kohn-Sham states=           11
     kinetic-energy cutoff     =      60.0000  Ry
     charge density cutoff     =     240.0000  Ry
     convergence threshold     =      1.0E-07
     mixing beta               =       0.7000
     number of iterations used =            8  plain     mixing
     Exchange-correlation      =  SLA  PW   PBX  PBC ( 1 4 3 4 0)
     EXX-fraction              =        0.00

     celldm(1)=   7.230000  celldm(2)=   0.000000  celldm(3)=   0.000000
     celldm(4)=   0.000000  celldm(5)=   0.000000  celldm(6)=   0.000000

     crystal axes: (cart. coord. in units of alat)
               a(1) = (  -0.500000   0.000000   0.500000 )  
               a(2) = (   0.000000   0.500000   0.500000 )  
               a(3) = (  -0.500000   0.500000   0.000000 )  

     reciprocal axes: (cart. coord. in units 2 pi/alat)
               b(1) = ( -1.000000 -1.000000  1.000000 )  
               b(2) = (  1.000000  1.000000  1.000000 )  
               b(3) = ( -1.000000  1.000000 -1.000000 )  


     PseudoPot. # 1 for Cu read from file:
     ./Cu.pbe.UPF
     MD5 check sum: 0c51aa2b3b25e0d1c3270f17c0a46a12
     Pseudo is Projector augmented-wave + core cor, Zval = 11.0
     Generated using "atomic" code by A. Dal Corso  v.5.0.99 svn rev. 10869
     Shape of augmentation charge: BESSEL
     Using radial grid of 1199 points,  6 beta functions with: 
                l(1) =   0
                l(2) =   0
                l(3) =   1
                l(4) =   1
                l(5) =   2
                l(6) =   2
     Q(r) pseudized with 0 coefficients 


     atomic species   valence    mass     pseudopotential
        Cu            11.00    63.54600     Cu( 1.00)

     24 Sym. Ops. (no inversion) found
          (note: 24 additional sym.ops. were found but ignored
           their fractional translations are incommensurate with FFT grid)


   Cartesian axes

     site n.     atom                  positions (alat units)
         1           Cu  tau(   1) = (   0.0000000   0.0000000   0.0000000  )
         2           Cu  tau(   2) = (   0.2500000   0.2500000   0.2500000  )

     number of k points=    29
                       cart. coord. in units 2pi/alat
        k(    1) = (   0.0000000   0.0000000   0.0000000), wk =   0.0039062
        k(    2) = (  -0.1250000   0.1250000  -0.1250000), wk =   0.0312500
        k(    3) = (  -0.2500000   0.2500000  -0.2500000), wk =   0.0312500
        k(    4) = (  -0.3750000   0.3750000  -0.3750000), wk =   0.0312500
        k(    5) = (   0.5000000  -0.5000000   0.5000000), wk =   0.0156250
        k(    6) = (   0.0000000   0.2500000   0.0000000), wk =   0.0234375
        k(    7) = (  -0.1250000   0.3750000  -0.1250000), wk =   0.0937500
        k(    8) = (  -0.2500000   0.5000000  -0.2500000), wk =   0.0937500
        k(    9) = (   0.6250000  -0.3750000   0.6250000), wk =   0.0937500
        k(   10) = (   0.5000000  -0.2500000   0.5000000), wk =   0.0937500
        k(   11) = (   0.3750000  -0.1250000   0.3750000), wk =   0.0937500
        k(   12) = (   0.2500000   0.0000000   0.2500000), wk =   0.0468750
        k(   13) = (   0.0000000   0.5000000   0.0000000), wk =   0.0234375
        k(   14) = (  -0.1250000   0.6250000  -0.1250000), wk =   0.0937500
        k(   15) = (   0.7500000  -0.2500000   0.7500000), wk =   0.0937500
        k(   16) = (   0.6250000  -0.1250000   0.6250000), wk =   0.0937500
        k(   17) = (   0.5000000   0.0000000   0.5000000), wk =   0.0468750
        k(   18) = (   0.0000000   0.7500000   0.0000000), wk =   0.0234375
        k(   19) = (   0.8750000  -0.1250000   0.8750000), wk =   0.0937500
        k(   20) = (   0.7500000   0.0000000   0.7500000), wk =   0.0468750
        k(   21) = (   0.0000000  -1.0000000   0.0000000), wk =   0.0117188
        k(   22) = (  -0.2500000   0.5000000   0.0000000), wk =   0.0937500
        k(   23) = (   0.6250000  -0.3750000   0.8750000), wk =   0.1875000
        k(   24) = (   0.5000000  -0.2500000   0.7500000), wk =   0.0937500
        k(   25) = (   0.7500000  -0.2500000   1.0000000), wk =   0.0937500
        k(   26) = (   0.6250000  -0.1250000   0.8750000), wk =   0.1875000
        k(   27) = (   0.5000000   0.0000000   0.7500000), wk =   0.0937500
        k(   28) = (  -0.2500000  -1.0000000   0.0000000), wk =   0.0468750
        k(   29) = (  -0.5000000  -1.0000000   0.0000000), wk =   0.0234375

     Dense  grid:     5961 G-vectors     FFT dimensions: (  25,  25,  25)

     Largest allocated arrays     est. size (Mb)     dimensions
        Kohn-Sham Wavefunctions         0.13 Mb     (    754,   11)
        NL pseudopotentials             0.41 Mb     (    754,   36)
        Each V/rho on FFT grid          0.24 Mb     (  15625)
        Each G-vector array             0.05 Mb     (   5961)
        G-vector shells                 0.00 Mb     (    108)
     Largest temporary arrays     est. size (Mb)     dimensions
        Auxiliary wavefunctions         0.51 Mb     (    754,   44)
        Each subspace H/S matrix        0.03 Mb     (  44,  44)
        Each <psi_i|beta_j> matrix      0.01 Mb     (     36,   11)
        Arrays for rho mixing           1.91 Mb     (  15625,   8)

     Check: negative/imaginary core charge=   -0.000008    0.000000

     Initial potential from superposition of free atoms

     starting charge   21.99954, renormalised to   22.00000
     Starting wfc are   18 randomized atomic wfcs
     Checking if some PAW data can be deallocated... 

     total cpu time spent up to now is        3.2 secs

     per-process dynamical memory:    12.7 Mb

     Self-consistent Calculation

     iteration #  1     ecut=    60.00 Ry     beta=0.70
     Davidson diagonalization with overlap
     ethr =  1.00E-02,  avg # of iterations =  2.1

     Threshold (ethr) on eigenvalues was too large:
     Diagonalizing with lowered threshold

     Davidson diagonalization with overlap
     ethr =  6.67E-04,  avg # of iterations =  2.5

     total cpu time spent up to now is        5.4 secs

     total energy              =    -424.59456181 Ry
     Harris-Foulkes estimate   =    -424.68596928 Ry
     estimated scf accuracy    <       0.12798870 Ry

     iteration #  2     ecut=    60.00 Ry     beta=0.70
     Davidson diagonalization with overlap
     ethr =  5.82E-04,  avg # of iterations =  3.6

     total cpu time spent up to now is        7.2 secs

     total energy              =    -424.60172898 Ry
     Harris-Foulkes estimate   =    -424.70417706 Ry
     estimated scf accuracy    <       0.23592893 Ry

     iteration #  3     ecut=    60.00 Ry     beta=0.70
     Davidson diagonalization with overlap
     ethr =  5.82E-04,  avg # of iterations =  3.1

     total cpu time spent up to now is        8.8 secs

     total energy              =    -424.63936344 Ry
     Harris-Foulkes estimate   =    -424.65211689 Ry
     estimated scf accuracy    <       0.02115750 Ry

     iteration #  4     ecut=    60.00 Ry     beta=0.70
     Davidson diagonalization with overlap
     ethr =  9.62E-05,  avg # of iterations =  3.2

     total cpu time spent up to now is       10.5 secs

     total energy              =    -424.64421252 Ry
     Harris-Foulkes estimate   =    -424.65121498 Ry
     estimated scf accuracy    <       0.01896139 Ry

     iteration #  5     ecut=    60.00 Ry     beta=0.70
     Davidson diagonalization with overlap
     ethr =  8.62E-05,  avg # of iterations =  2.1

     total cpu time spent up to now is       12.0 secs

     total energy              =    -424.64622441 Ry
     Harris-Foulkes estimate   =    -424.64646893 Ry
     estimated scf accuracy    <       0.00066073 Ry

     iteration #  6     ecut=    60.00 Ry     beta=0.70
     Davidson diagonalization with overlap
     ethr =  3.00E-06,  avg # of iterations =  3.3

     total cpu time spent up to now is       13.8 secs

     total energy              =    -424.64656919 Ry
     Harris-Foulkes estimate   =    -424.64658243 Ry
     estimated scf accuracy    <       0.00004828 Ry

     iteration #  7     ecut=    60.00 Ry     beta=0.70
     Davidson diagonalization with overlap
     ethr =  2.19E-07,  avg # of iterations =  1.8

     total cpu time spent up to now is       15.3 secs

     total energy              =    -424.64656950 Ry
     Harris-Foulkes estimate   =    -424.64657251 Ry
     estimated scf accuracy    <       0.00000962 Ry

     iteration #  8     ecut=    60.00 Ry     beta=0.70
     Davidson diagonalization with overlap
     ethr =  4.37E-08,  avg # of iterations =  3.0

     total cpu time spent up to now is       16.9 secs

     End of self-consistent calculation

          k = 0.0000 0.0000 0.0000 (   725 PWs)   bands (ev):

    14.9693  19.4594  19.4594  20.3834  20.3834  20.3834  24.0475  24.0475
    24.0475  27.2538  27.2538

          k =-0.1250 0.1250-0.1250 (   740 PWs)   bands (ev):

    15.4893  19.2542  19.2542  20.4257  20.7315  20.7315  23.7388  24.0105
    24.0105  27.2433  27.2433

          k =-0.2500 0.2500-0.2500 (   751 PWs)   bands (ev):

    16.8674  19.1472  19.1472  20.7105  20.9935  20.9935  22.9497  24.1848
    24.1848  27.1589  27.1589

          k =-0.3750 0.3750-0.3750 (   751 PWs)   bands (ev):

    18.4339  19.3718  19.3718  20.6498  20.6498  21.0170  22.7197  24.8085
    24.8085  26.9225  26.9225

          k = 0.5000-0.5000 0.5000 (   754 PWs)   bands (ev):

    19.2848  19.7195  19.7195  20.1997  20.1997  20.4914  23.7537  25.2459
    25.2459  26.7061  26.7061

          k = 0.0000 0.2500 0.0000 (   737 PWs)   bands (ev):

    15.6645  18.8064  19.7449  20.4250  20.4250  21.1294  23.2353  24.2459
    24.2459  26.9558  27.4453

          k =-0.1250 0.3750-0.1250 (   745 PWs)   bands (ev):

    16.7515  18.5159  19.8349  20.5378  20.6131  21.6147  22.6171  24.2767
    24.5582  26.6662  27.5063

          k =-0.2500 0.5000-0.2500 (   746 PWs)   bands (ev):

    18.0900  18.5719  20.0234  20.4182  21.0440  21.5938  22.4561  24.4464
    25.1004  26.4410  27.4011

          k = 0.6250-0.3750 0.6250 (   744 PWs)   bands (ev):

    18.5508  19.1192  19.7772  20.5287  21.0947  21.2434  23.4907  25.0506
    25.2835  26.7254  27.0212

          k = 0.5000-0.2500 0.5000 (   745 PWs)   bands (ev):

    18.4500  19.1641  19.5444  20.6556  21.1544  21.2984  23.3643  24.3388
    25.5103  26.4274  27.2369

          k = 0.3750-0.1250 0.3750 (   747 PWs)   bands (ev):

    17.6308  18.8088  19.5467  20.5801  20.9724  21.5899  22.8596  23.6934
    25.0558  26.4756  27.4825

          k = 0.2500 0.0000 0.2500 (   753 PWs)   bands (ev):

    16.2933  18.8438  19.4681  20.4394  20.7756  21.3228  23.2713  23.6980
    24.4732  26.8837  27.4546

          k = 0.0000 0.5000 0.0000 (   729 PWs)   bands (ev):

    17.4749  18.0489  20.4427  20.4427  20.5659  21.8119  22.2185  24.9826
    24.9826  26.1029  27.5966

          k =-0.1250 0.6250-0.1250 (   741 PWs)   bands (ev):

    17.9118  18.3015  20.3640  20.8683  20.9671  21.6099  22.6267  25.2586
    25.3708  25.9613  27.6342

          k = 0.7500-0.2500 0.7500 (   739 PWs)   bands (ev):

    17.9036  18.5730  19.9736  21.3642  21.7098  22.0835  22.8871  24.5783
    26.2656  26.7809  27.5897

          k = 0.6250-0.1250 0.6250 (   737 PWs)   bands (ev):

    17.8898  19.0235  19.3710  21.6607  21.9315  21.9383  23.7172  23.8111
    26.2501  27.0124  27.3660

          k = 0.5000 0.0000 0.5000 (   742 PWs)   bands (ev):

    17.9860  18.9091  19.4589  21.1780  21.3672  22.1923  23.2435  23.3829
    25.7015  26.0256  27.5727

          k = 0.0000 0.7500 0.0000 (   741 PWs)   bands (ev):

    17.6905  18.4944  20.3679  20.3679  21.8135  22.1279  23.1899  24.8206
    26.2438  26.2438  27.8787

          k = 0.8750-0.1250 0.8750 (   743 PWs)   bands (ev):

    17.7404  18.2050  20.2099  20.8161  22.4076  22.9244  23.3607  23.9927
    26.9305  27.0141  28.5655

          k = 0.7500 0.0000 0.7500 (   740 PWs)   bands (ev):

    17.6584  18.4644  19.8111  21.6518  22.5471  22.7849  23.2012  23.5598
    27.3042  27.4779  29.1372

          k = 0.0000-1.0000 0.0000 (   740 PWs)   bands (ev):

    17.9167  17.9269  20.3179  20.3179  23.2698  23.3490  23.4999  23.5226
    27.0678  27.0678  30.1828

          k =-0.2500 0.5000 0.0000 (   745 PWs)   bands (ev):

    17.7488  18.3036  20.1604  20.6046  20.7353  22.1047  22.1640  24.3488
    25.2555  26.1376  27.5900

          k = 0.6250-0.3750 0.8750 (   743 PWs)   bands (ev):

    18.1401  18.4309  20.2514  20.7627  21.5964  21.9612  22.6195  24.5391
    25.6029  26.2943  27.5321

          k = 0.5000-0.2500 0.7500 (   740 PWs)   bands (ev):

    18.1061  18.6051  20.1174  20.9381  21.7289  21.9146  23.5377  24.2589
    26.3605  26.9677  27.3100

          k = 0.7500-0.2500 1.0000 (   734 PWs)   bands (ev):

    17.8651  18.2234  20.6175  21.0568  21.4588  22.1753  22.9709  24.5948
    26.2870  26.5031  27.8193

          k = 0.6250-0.1250 0.8750 (   738 PWs)   bands (ev):

    17.7869  18.1747  20.4489  21.6192  21.8732  22.5938  23.1987  23.7842
    27.2395  27.3564  28.5741

          k = 0.5000 0.0000 0.7500 (   740 PWs)   bands (ev):

    17.8365  18.3321  20.2406  21.5956  21.9931  22.5913  22.7513  24.0378
    26.8252  27.0443  27.6375

          k =-0.2500-1.0000 0.0000 (   742 PWs)   bands (ev):

    17.8791  17.8864  20.6887  20.6896  22.8982  22.9439  23.3965  23.4117
    27.3443  27.3488  30.4311

          k =-0.5000-1.0000 0.0000 (   744 PWs)   bands (ev):

    17.8456  17.8504  21.2927  21.3047  22.2089  22.2623  23.3662  23.3910
    27.5746  27.5861  31.1766

!    total energy              =    -424.64657195 Ry
     Harris-Foulkes estimate   =    -424.64657199 Ry
     estimated scf accuracy    <       0.00000005 Ry

     total all-electron energy =     -6618.406108 Ry

     The total energy is the sum of the following terms:

     one-electron contribution =     -36.64682847 Ry
     hartree contribution      =      31.24433694 Ry
     xc contribution           =     -74.93830092 Ry
     ewald contribution        =    -180.30499680 Ry
     one-center paw contrib.   =    -164.00078271 Ry

     convergence has been achieved in   8 iterations

     Writing output data file Cu.save

     init_run     :      2.20s CPU      2.52s WALL (       1 calls)
     electrons    :     13.27s CPU     13.66s WALL (       1 calls)

     Called by init_run:
     wfcinit      :      0.35s CPU      0.51s WALL (       1 calls)
     potinit      :      0.69s CPU      0.75s WALL (       1 calls)

     Called by electrons:
     c_bands      :      5.72s CPU      5.83s WALL (       9 calls)
     sum_band     :      1.24s CPU      1.25s WALL (       9 calls)
     v_of_rho     :      0.14s CPU      0.14s WALL (       9 calls)
     newd         :      0.31s CPU      0.32s WALL (       9 calls)
     mix_rho      :      0.55s CPU      0.57s WALL (       9 calls)

     Called by c_bands:
     init_us_2    :      0.34s CPU      0.35s WALL (     551 calls)
     cegterg      :      5.03s CPU      5.13s WALL (     261 calls)

     Called by *egterg:
     h_psi        :      4.00s CPU      4.05s WALL (    1008 calls)
     s_psi        :      0.23s CPU      0.22s WALL (    1008 calls)
     g_psi        :      0.06s CPU      0.07s WALL (     718 calls)
     cdiaghg      :      0.40s CPU      0.56s WALL (     950 calls)

     Called by h_psi:
     add_vuspsi   :      0.23s CPU      0.23s WALL (    1008 calls)

     General routines
     calbec       :      0.30s CPU      0.29s WALL (    1269 calls)
     fft          :      0.03s CPU      0.11s WALL (     119 calls)
     fftw         :      3.72s CPU      3.51s WALL (   20395 calls)
     davcio       :      0.02s CPU      0.03s WALL (     812 calls)

     Parallel routines
     fft_scatter  :      0.34s CPU      0.34s WALL (   20514 calls)

     PAW routines
     PAW_pot      :      6.01s CPU      6.19s WALL (       9 calls)
     PAW_ddot     :      0.55s CPU      0.54s WALL (      86 calls)
     PAW_symme    :      0.01s CPU      0.01s WALL (      18 calls)

     PWSCF        :    16.06s CPU        17.15s WALL


   This run was terminated on:   9:15:42   4Aug2015            

=------------------------------------------------------------------------------=
   JOB DONE.
=------------------------------------------------------------------------------=
