
     Program PWSCF v.5.0.2 (svn rev. 9656) starts on  4Jul2015 at  1:22:45 

     This program is part of the open-source Quantum ESPRESSO suite
     for quantum simulation of materials; please cite
         "P. Giannozzi et al., J. Phys.:Condens. Matter 21 395502 (2009);
          URL http://www.quantum-espresso.org", 
     in publications or presentations arising from this work. More details at
     http://www.quantum-espresso.org/quote.php

     Parallel version (MPI), running on     4 processors
     R & G space division:  proc/nbgrp/npool/nimage =       4

     Current dimensions of program PWSCF are:
     Max number of different atomic species (ntypx) = 10
     Max number of k-points (npk) =  40000
     Max angular momentum in pseudopotentials (lmaxx) =  3
     Waiting for input...
     Reading input from standard input
               file Cu.pbe.UPF: wavefunction(s)  4S 3D renormalized

     Subspace diagonalization in iterative solution of the eigenvalue problem:
     a serial algorithm will be used


     Parallelization info
     --------------------
     sticks:   dense  smooth     PW     G-vecs:    dense   smooth      PW
     Min         108     108     34                 1489     1489     266
     Max         109     109     35                 1492     1492     267
     Sum         433     433    139                 5961     5961    1067



     bravais-lattice index     =            2
     lattice parameter (alat)  =       7.2300  a.u.
     unit-cell volume          =      94.4833 (a.u.)^3
     number of atoms/cell      =            2
     number of atomic types    =            1
     number of electrons       =        22.00
     number of Kohn-Sham states=           11
     kinetic-energy cutoff     =      60.0000  Ry
     charge density cutoff     =     240.0000  Ry
     convergence threshold     =      1.0E-07
     mixing beta               =       0.7000
     number of iterations used =            8  plain     mixing
     Exchange-correlation      =  SLA  PW   PBX  PBC ( 1 4 3 4 0)
     EXX-fraction              =        0.00

     celldm(1)=   7.230000  celldm(2)=   0.000000  celldm(3)=   0.000000
     celldm(4)=   0.000000  celldm(5)=   0.000000  celldm(6)=   0.000000

     crystal axes: (cart. coord. in units of alat)
               a(1) = (  -0.500000   0.000000   0.500000 )  
               a(2) = (   0.000000   0.500000   0.500000 )  
               a(3) = (  -0.500000   0.500000   0.000000 )  

     reciprocal axes: (cart. coord. in units 2 pi/alat)
               b(1) = ( -1.000000 -1.000000  1.000000 )  
               b(2) = (  1.000000  1.000000  1.000000 )  
               b(3) = ( -1.000000  1.000000 -1.000000 )  


     PseudoPot. # 1 for Cu read from file:
     ./Cu.pbe.UPF
     MD5 check sum: 0c51aa2b3b25e0d1c3270f17c0a46a12
     Pseudo is Projector augmented-wave + core cor, Zval = 11.0
     Generated using "atomic" code by A. Dal Corso  v.5.0.99 svn rev. 10869
     Shape of augmentation charge: BESSEL
     Using radial grid of 1199 points,  6 beta functions with: 
                l(1) =   0
                l(2) =   0
                l(3) =   1
                l(4) =   1
                l(5) =   2
                l(6) =   2
     Q(r) pseudized with 0 coefficients 


     atomic species   valence    mass     pseudopotential
        Cu            11.00    63.54600     Cu( 1.00)

     24 Sym. Ops. (no inversion) found
          (note: 24 additional sym.ops. were found but ignored
           their fractional translations are incommensurate with FFT grid)


   Cartesian axes

     site n.     atom                  positions (alat units)
         1           Cu  tau(   1) = (   0.0000000   0.0000000   0.0000000  )
         2           Cu  tau(   2) = (   0.2500000   0.2500000   0.2500000  )

     number of k points=    29
                       cart. coord. in units 2pi/alat
        k(    1) = (   0.0000000   0.0000000   0.0000000), wk =   0.0039062
        k(    2) = (  -0.1250000   0.1250000  -0.1250000), wk =   0.0312500
        k(    3) = (  -0.2500000   0.2500000  -0.2500000), wk =   0.0312500
        k(    4) = (  -0.3750000   0.3750000  -0.3750000), wk =   0.0312500
        k(    5) = (   0.5000000  -0.5000000   0.5000000), wk =   0.0156250
        k(    6) = (   0.0000000   0.2500000   0.0000000), wk =   0.0234375
        k(    7) = (  -0.1250000   0.3750000  -0.1250000), wk =   0.0937500
        k(    8) = (  -0.2500000   0.5000000  -0.2500000), wk =   0.0937500
        k(    9) = (   0.6250000  -0.3750000   0.6250000), wk =   0.0937500
        k(   10) = (   0.5000000  -0.2500000   0.5000000), wk =   0.0937500
        k(   11) = (   0.3750000  -0.1250000   0.3750000), wk =   0.0937500
        k(   12) = (   0.2500000   0.0000000   0.2500000), wk =   0.0468750
        k(   13) = (   0.0000000   0.5000000   0.0000000), wk =   0.0234375
        k(   14) = (  -0.1250000   0.6250000  -0.1250000), wk =   0.0937500
        k(   15) = (   0.7500000  -0.2500000   0.7500000), wk =   0.0937500
        k(   16) = (   0.6250000  -0.1250000   0.6250000), wk =   0.0937500
        k(   17) = (   0.5000000   0.0000000   0.5000000), wk =   0.0468750
        k(   18) = (   0.0000000   0.7500000   0.0000000), wk =   0.0234375
        k(   19) = (   0.8750000  -0.1250000   0.8750000), wk =   0.0937500
        k(   20) = (   0.7500000   0.0000000   0.7500000), wk =   0.0468750
        k(   21) = (   0.0000000  -1.0000000   0.0000000), wk =   0.0117188
        k(   22) = (  -0.2500000   0.5000000   0.0000000), wk =   0.0937500
        k(   23) = (   0.6250000  -0.3750000   0.8750000), wk =   0.1875000
        k(   24) = (   0.5000000  -0.2500000   0.7500000), wk =   0.0937500
        k(   25) = (   0.7500000  -0.2500000   1.0000000), wk =   0.0937500
        k(   26) = (   0.6250000  -0.1250000   0.8750000), wk =   0.1875000
        k(   27) = (   0.5000000   0.0000000   0.7500000), wk =   0.0937500
        k(   28) = (  -0.2500000  -1.0000000   0.0000000), wk =   0.0468750
        k(   29) = (  -0.5000000  -1.0000000   0.0000000), wk =   0.0234375

     Dense  grid:     5961 G-vectors     FFT dimensions: (  25,  25,  25)

     Largest allocated arrays     est. size (Mb)     dimensions
        Kohn-Sham Wavefunctions         0.03 Mb     (    189,   11)
        NL pseudopotentials             0.10 Mb     (    189,   36)
        Each V/rho on FFT grid          0.07 Mb     (   4375)
        Each G-vector array             0.01 Mb     (   1491)
        G-vector shells                 0.00 Mb     (    107)
     Largest temporary arrays     est. size (Mb)     dimensions
        Auxiliary wavefunctions         0.13 Mb     (    189,   44)
        Each subspace H/S matrix        0.03 Mb     (  44,  44)
        Each <psi_i|beta_j> matrix      0.01 Mb     (     36,   11)
        Arrays for rho mixing           0.53 Mb     (   4375,   8)

     Check: negative/imaginary core charge=   -0.000008    0.000000

     Initial potential from superposition of free atoms

     starting charge   21.99954, renormalised to   22.00000
     Starting wfc are   18 randomized atomic wfcs
     Checking if some PAW data can be deallocated... 

     total cpu time spent up to now is        1.9 secs

     per-process dynamical memory:    10.1 Mb

     Self-consistent Calculation

     iteration #  1     ecut=    60.00 Ry     beta=0.70
     Davidson diagonalization with overlap
     ethr =  1.00E-02,  avg # of iterations =  2.1

     Threshold (ethr) on eigenvalues was too large:
     Diagonalizing with lowered threshold

     Davidson diagonalization with overlap
     ethr =  6.81E-04,  avg # of iterations =  2.4

     total cpu time spent up to now is        3.1 secs

     total energy              =    -424.59454181 Ry
     Harris-Foulkes estimate   =    -424.68598152 Ry
     estimated scf accuracy    <       0.12800510 Ry

     iteration #  2     ecut=    60.00 Ry     beta=0.70
     Davidson diagonalization with overlap
     ethr =  5.82E-04,  avg # of iterations =  3.6

     total cpu time spent up to now is        4.1 secs

     total energy              =    -424.60165384 Ry
     Harris-Foulkes estimate   =    -424.70413988 Ry
     estimated scf accuracy    <       0.23602727 Ry

     iteration #  3     ecut=    60.00 Ry     beta=0.70
     Davidson diagonalization with overlap
     ethr =  5.82E-04,  avg # of iterations =  3.1

     total cpu time spent up to now is        5.1 secs

     total energy              =    -424.63935592 Ry
     Harris-Foulkes estimate   =    -424.65211158 Ry
     estimated scf accuracy    <       0.02117602 Ry

     iteration #  4     ecut=    60.00 Ry     beta=0.70
     Davidson diagonalization with overlap
     ethr =  9.63E-05,  avg # of iterations =  3.2

     total cpu time spent up to now is        6.1 secs

     total energy              =    -424.64421140 Ry
     Harris-Foulkes estimate   =    -424.65119633 Ry
     estimated scf accuracy    <       0.01888644 Ry

     iteration #  5     ecut=    60.00 Ry     beta=0.70
     Davidson diagonalization with overlap
     ethr =  8.58E-05,  avg # of iterations =  2.1

     total cpu time spent up to now is        7.0 secs

     total energy              =    -424.64622633 Ry
     Harris-Foulkes estimate   =    -424.64646707 Ry
     estimated scf accuracy    <       0.00064918 Ry

     iteration #  6     ecut=    60.00 Ry     beta=0.70
     Davidson diagonalization with overlap
     ethr =  2.95E-06,  avg # of iterations =  3.4

     total cpu time spent up to now is        8.1 secs

     total energy              =    -424.64656901 Ry
     Harris-Foulkes estimate   =    -424.64658270 Ry
     estimated scf accuracy    <       0.00004906 Ry

     iteration #  7     ecut=    60.00 Ry     beta=0.70
     Davidson diagonalization with overlap
     ethr =  2.23E-07,  avg # of iterations =  1.8

     total cpu time spent up to now is        9.0 secs

     total energy              =    -424.64656948 Ry
     Harris-Foulkes estimate   =    -424.64657238 Ry
     estimated scf accuracy    <       0.00000921 Ry

     iteration #  8     ecut=    60.00 Ry     beta=0.70
     Davidson diagonalization with overlap
     ethr =  4.19E-08,  avg # of iterations =  3.2

     total cpu time spent up to now is        9.9 secs

     End of self-consistent calculation

          k = 0.0000 0.0000 0.0000 (   725 PWs)   bands (ev):

    14.9693  19.4593  19.4593  20.3833  20.3833  20.3833  24.0474  24.0474
    24.0474  27.2538  27.2538

          k =-0.1250 0.1250-0.1250 (   740 PWs)   bands (ev):

    15.4893  19.2541  19.2541  20.4256  20.7315  20.7315  23.7387  24.0105
    24.0105  27.2432  27.2432

          k =-0.2500 0.2500-0.2500 (   751 PWs)   bands (ev):

    16.8674  19.1472  19.1472  20.7105  20.9935  20.9935  22.9497  24.1847
    24.1847  27.1589  27.1589

          k =-0.3750 0.3750-0.3750 (   751 PWs)   bands (ev):

    18.4339  19.3717  19.3717  20.6497  20.6497  21.0169  22.7197  24.8084
    24.8084  26.9225  26.9225

          k = 0.5000-0.5000 0.5000 (   754 PWs)   bands (ev):

    19.2848  19.7195  19.7195  20.1997  20.1997  20.4914  23.7537  25.2459
    25.2459  26.7060  26.7060

          k = 0.0000 0.2500 0.0000 (   737 PWs)   bands (ev):

    15.6645  18.8064  19.7449  20.4249  20.4249  21.1293  23.2352  24.2458
    24.2458  26.9557  27.4452

          k =-0.1250 0.3750-0.1250 (   745 PWs)   bands (ev):

    16.7515  18.5158  19.8349  20.5377  20.6130  21.6146  22.6170  24.2767
    24.5581  26.6661  27.5062

          k =-0.2500 0.5000-0.2500 (   746 PWs)   bands (ev):

    18.0900  18.5718  20.0233  20.4181  21.0440  21.5938  22.4560  24.4464
    25.1004  26.4409  27.4010

          k = 0.6250-0.3750 0.6250 (   744 PWs)   bands (ev):

    18.5507  19.1192  19.7772  20.5286  21.0947  21.2433  23.4907  25.0505
    25.2834  26.7254  27.0211

          k = 0.5000-0.2500 0.5000 (   745 PWs)   bands (ev):

    18.4499  19.1640  19.5444  20.6556  21.1544  21.2983  23.3643  24.3388
    25.5103  26.4273  27.2368

          k = 0.3750-0.1250 0.3750 (   747 PWs)   bands (ev):

    17.6308  18.8088  19.5466  20.5801  20.9723  21.5898  22.8596  23.6933
    25.0557  26.4755  27.4825

          k = 0.2500 0.0000 0.2500 (   753 PWs)   bands (ev):

    16.2933  18.8437  19.4680  20.4393  20.7756  21.3227  23.2712  23.6980
    24.4731  26.8836  27.4545

          k = 0.0000 0.5000 0.0000 (   729 PWs)   bands (ev):

    17.4749  18.0489  20.4426  20.4426  20.5658  21.8119  22.2184  24.9825
    24.9825  26.1029  27.5965

          k =-0.1250 0.6250-0.1250 (   741 PWs)   bands (ev):

    17.9117  18.3015  20.3639  20.8682  20.9671  21.6098  22.6266  25.2586
    25.3708  25.9612  27.6341

          k = 0.7500-0.2500 0.7500 (   739 PWs)   bands (ev):

    17.9036  18.5729  19.9735  21.3641  21.7097  22.0834  22.8870  24.5782
    26.2656  26.7808  27.5896

          k = 0.6250-0.1250 0.6250 (   737 PWs)   bands (ev):

    17.8898  19.0235  19.3710  21.6607  21.9314  21.9382  23.7171  23.8110
    26.2501  27.0123  27.3659

          k = 0.5000 0.0000 0.5000 (   742 PWs)   bands (ev):

    17.9860  18.9091  19.4589  21.1779  21.3671  22.1923  23.2435  23.3828
    25.7015  26.0255  27.5726

          k = 0.0000 0.7500 0.0000 (   741 PWs)   bands (ev):

    17.6904  18.4944  20.3678  20.3678  21.8134  22.1278  23.1899  24.8205
    26.2438  26.2438  27.8786

          k = 0.8750-0.1250 0.8750 (   743 PWs)   bands (ev):

    17.7404  18.2049  20.2098  20.8160  22.4075  22.9243  23.3607  23.9926
    26.9304  27.0141  28.5655

          k = 0.7500 0.0000 0.7500 (   740 PWs)   bands (ev):

    17.6584  18.4643  19.8111  21.6518  22.5470  22.7849  23.2011  23.5597
    27.3041  27.4778  29.1372

          k = 0.0000-1.0000 0.0000 (   740 PWs)   bands (ev):

    17.9166  17.9269  20.3178  20.3178  23.2699  23.3488  23.4998  23.5225
    27.0677  27.0677  30.1827

          k =-0.2500 0.5000 0.0000 (   745 PWs)   bands (ev):

    17.7488  18.3036  20.1603  20.6045  20.7353  22.1048  22.1638  24.3487
    25.2554  26.1375  27.5900

          k = 0.6250-0.3750 0.8750 (   743 PWs)   bands (ev):

    18.1400  18.4309  20.2513  20.7626  21.5963  21.9612  22.6195  24.5391
    25.6028  26.2942  27.5321

          k = 0.5000-0.2500 0.7500 (   740 PWs)   bands (ev):

    18.1060  18.6050  20.1173  20.9381  21.7288  21.9145  23.5376  24.2588
    26.3604  26.9676  27.3099

          k = 0.7500-0.2500 1.0000 (   734 PWs)   bands (ev):

    17.8650  18.2233  20.6174  21.0567  21.4587  22.1752  22.9708  24.5947
    26.2869  26.5030  27.8192

          k = 0.6250-0.1250 0.8750 (   738 PWs)   bands (ev):

    17.7869  18.1747  20.4488  21.6192  21.8732  22.5937  23.1986  23.7841
    27.2394  27.3563  28.5741

          k = 0.5000 0.0000 0.7500 (   740 PWs)   bands (ev):

    17.8365  18.3321  20.2405  21.5956  21.9930  22.5912  22.7512  24.0377
    26.8251  27.0442  27.6374

          k =-0.2500-1.0000 0.0000 (   742 PWs)   bands (ev):

    17.8790  17.8863  20.6887  20.6895  22.8982  22.9437  23.3964  23.4116
    27.3443  27.3488  30.4310

          k =-0.5000-1.0000 0.0000 (   744 PWs)   bands (ev):

    17.8455  17.8504  21.2927  21.3046  22.2089  22.2621  23.3662  23.3909
    27.5745  27.5860  31.1766

!    total energy              =    -424.64657197 Ry
     Harris-Foulkes estimate   =    -424.64657199 Ry
     estimated scf accuracy    <       0.00000004 Ry

     total all-electron energy =     -6618.406108 Ry

     The total energy is the sum of the following terms:

     one-electron contribution =     -36.64698744 Ry
     hartree contribution      =      31.24445224 Ry
     xc contribution           =     -74.93833178 Ry
     ewald contribution        =    -180.30499680 Ry
     one-center paw contrib.   =    -164.00070819 Ry

     convergence has been achieved in   8 iterations

     Writing output data file Cu.save

     init_run     :      1.00s CPU      1.07s WALL (       1 calls)
     electrons    :      7.70s CPU      8.02s WALL (       1 calls)

     Called by init_run:
     wfcinit      :      0.20s CPU      0.22s WALL (       1 calls)
     potinit      :      0.33s CPU      0.34s WALL (       1 calls)

     Called by electrons:
     c_bands      :      3.94s CPU      4.05s WALL (       9 calls)
     sum_band     :      0.64s CPU      0.67s WALL (       9 calls)
     v_of_rho     :      0.06s CPU      0.06s WALL (       9 calls)
     newd         :      0.14s CPU      0.15s WALL (       9 calls)
     mix_rho      :      0.42s CPU      0.43s WALL (       9 calls)

     Called by c_bands:
     init_us_2    :      0.16s CPU      0.14s WALL (     551 calls)
     cegterg      :      3.58s CPU      3.70s WALL (     261 calls)

     Called by *egterg:
     h_psi        :      2.58s CPU      2.65s WALL (    1012 calls)
     s_psi        :      0.14s CPU      0.14s WALL (    1012 calls)
     g_psi        :      0.03s CPU      0.03s WALL (     722 calls)
     cdiaghg      :      0.64s CPU      0.64s WALL (     954 calls)

     Called by h_psi:
     add_vuspsi   :      0.13s CPU      0.14s WALL (    1012 calls)

     General routines
     calbec       :      0.25s CPU      0.21s WALL (    1273 calls)
     fft          :      0.02s CPU      0.02s WALL (     119 calls)
     fftw         :      2.23s CPU      2.31s WALL (   20435 calls)
     davcio       :      0.01s CPU      0.02s WALL (     812 calls)

     Parallel routines
     fft_scatter  :      0.65s CPU      0.69s WALL (   20554 calls)

     PAW routines
     PAW_pot      :      2.81s CPU      2.97s WALL (       9 calls)
     PAW_ddot     :      0.42s CPU      0.42s WALL (      86 calls)
     PAW_symme    :      0.01s CPU      0.01s WALL (      18 calls)

     PWSCF        :     9.67s CPU        10.12s WALL


   This run was terminated on:   1:22:56   4Jul2015            

=------------------------------------------------------------------------------=
   JOB DONE.
=------------------------------------------------------------------------------=
