
     Program PWSCF v.5.0.2 (svn rev. 9656) starts on 11Jul2015 at 20:18:17 

     This program is part of the open-source Quantum ESPRESSO suite
     for quantum simulation of materials; please cite
         "P. Giannozzi et al., J. Phys.:Condens. Matter 21 395502 (2009);
          URL http://www.quantum-espresso.org", 
     in publications or presentations arising from this work. More details at
     http://www.quantum-espresso.org/quote.php

     Parallel version (MPI), running on     4 processors
     R & G space division:  proc/nbgrp/npool/nimage =       4

     Current dimensions of program PWSCF are:
     Max number of different atomic species (ntypx) = 10
     Max number of k-points (npk) =  40000
     Max angular momentum in pseudopotentials (lmaxx) =  3
     Waiting for input...
     Reading input from standard input
               file Cu.pbe.UPF: wavefunction(s)  4S 3D renormalized

     Subspace diagonalization in iterative solution of the eigenvalue problem:
     a serial algorithm will be used


     Parallelization info
     --------------------
     sticks:   dense  smooth     PW     G-vecs:    dense   smooth      PW
     Min         180     180     52                 3156     3156     526
     Max         181     181     53                 3157     3157     529
     Sum         721     721    211                12627    12627    2109



     bravais-lattice index     =            2
     lattice parameter (alat)  =      10.2000  a.u.
     unit-cell volume          =     265.3020 (a.u.)^3
     number of atoms/cell      =            2
     number of atomic types    =            1
     number of electrons       =        22.00
     number of Kohn-Sham states=           15
     kinetic-energy cutoff     =      50.0000  Ry
     charge density cutoff     =     200.0000  Ry
     convergence threshold     =      1.0E-07
     mixing beta               =       0.7000
     number of iterations used =            8  plain     mixing
     Exchange-correlation      =  SLA  PW   PBX  PBC ( 1 4 3 4 0)
     EXX-fraction              =        0.00

     celldm(1)=  10.200000  celldm(2)=   0.000000  celldm(3)=   0.000000
     celldm(4)=   0.000000  celldm(5)=   0.000000  celldm(6)=   0.000000

     crystal axes: (cart. coord. in units of alat)
               a(1) = (  -0.500000   0.000000   0.500000 )  
               a(2) = (   0.000000   0.500000   0.500000 )  
               a(3) = (  -0.500000   0.500000   0.000000 )  

     reciprocal axes: (cart. coord. in units 2 pi/alat)
               b(1) = ( -1.000000 -1.000000  1.000000 )  
               b(2) = (  1.000000  1.000000  1.000000 )  
               b(3) = ( -1.000000  1.000000 -1.000000 )  


     PseudoPot. # 1 for Cu read from file:
     ./Cu.pbe.UPF
     MD5 check sum: 0c51aa2b3b25e0d1c3270f17c0a46a12
     Pseudo is Projector augmented-wave + core cor, Zval = 11.0
     Generated using "atomic" code by A. Dal Corso  v.5.0.99 svn rev. 10869
     Shape of augmentation charge: BESSEL
     Using radial grid of 1199 points,  6 beta functions with: 
                l(1) =   0
                l(2) =   0
                l(3) =   1
                l(4) =   1
                l(5) =   2
                l(6) =   2
     Q(r) pseudized with 0 coefficients 


     atomic species   valence    mass     pseudopotential
        Cu            11.00    63.54600     Cu( 1.00)

     48 Sym. Ops., with inversion, found (24 have fractional translation)



   Cartesian axes

     site n.     atom                  positions (alat units)
         1           Cu  tau(   1) = (   0.0000000   0.0000000   0.0000000  )
         2           Cu  tau(   2) = (   0.2500000   0.2500000   0.2500000  )

     number of k points=    35  gaussian smearing, width (Ry)=  0.0030
                       cart. coord. in units 2pi/alat
        k(    1) = (   0.0000000   0.0000000   0.0000000), wk =   0.0027435
        k(    2) = (  -0.1111111   0.1111111  -0.1111111), wk =   0.0219479
        k(    3) = (  -0.2222222   0.2222222  -0.2222222), wk =   0.0219479
        k(    4) = (  -0.3333333   0.3333333  -0.3333333), wk =   0.0219479
        k(    5) = (  -0.4444444   0.4444444  -0.4444444), wk =   0.0219479
        k(    6) = (   0.0000000   0.2222222   0.0000000), wk =   0.0164609
        k(    7) = (  -0.1111111   0.3333333  -0.1111111), wk =   0.0658436
        k(    8) = (  -0.2222222   0.4444444  -0.2222222), wk =   0.0658436
        k(    9) = (  -0.3333333   0.5555556  -0.3333333), wk =   0.0658436
        k(   10) = (   0.5555556  -0.3333333   0.5555556), wk =   0.0658436
        k(   11) = (   0.4444444  -0.2222222   0.4444444), wk =   0.0658436
        k(   12) = (   0.3333333  -0.1111111   0.3333333), wk =   0.0658436
        k(   13) = (   0.2222222  -0.0000000   0.2222222), wk =   0.0329218
        k(   14) = (   0.0000000   0.4444444   0.0000000), wk =   0.0164609
        k(   15) = (  -0.1111111   0.5555556  -0.1111111), wk =   0.0658436
        k(   16) = (  -0.2222222   0.6666667  -0.2222222), wk =   0.0658436
        k(   17) = (   0.6666667  -0.2222222   0.6666667), wk =   0.0658436
        k(   18) = (   0.5555556  -0.1111111   0.5555556), wk =   0.0658436
        k(   19) = (   0.4444444   0.0000000   0.4444444), wk =   0.0329218
        k(   20) = (   0.0000000   0.6666667   0.0000000), wk =   0.0164609
        k(   21) = (  -0.1111111   0.7777778  -0.1111111), wk =   0.0658436
        k(   22) = (   0.7777778  -0.1111111   0.7777778), wk =   0.0658436
        k(   23) = (   0.6666667  -0.0000000   0.6666667), wk =   0.0329218
        k(   24) = (   0.0000000   0.8888889   0.0000000), wk =   0.0164609
        k(   25) = (   0.8888889   0.0000000   0.8888889), wk =   0.0329218
        k(   26) = (  -0.2222222   0.4444444   0.0000000), wk =   0.0658436
        k(   27) = (  -0.3333333   0.5555556  -0.1111111), wk =   0.1316872
        k(   28) = (   0.5555556  -0.3333333   0.7777778), wk =   0.1316872
        k(   29) = (  -0.2222222   0.6666667   0.0000000), wk =   0.0658436
        k(   30) = (   0.6666667  -0.2222222   0.8888889), wk =   0.1316872
        k(   31) = (   0.5555556  -0.1111111   0.7777778), wk =   0.1316872
        k(   32) = (   0.4444444   0.0000000   0.6666667), wk =   0.0658436
        k(   33) = (   0.7777778  -0.1111111   1.0000000), wk =   0.0658436
        k(   34) = (   0.6666667  -0.0000000   0.8888889), wk =   0.0658436
        k(   35) = (   0.5555556  -0.1111111   1.0000000), wk =   0.0658436

     Dense  grid:    12627 G-vectors     FFT dimensions: (  36,  36,  36)

     Largest allocated arrays     est. size (Mb)     dimensions
        Kohn-Sham Wavefunctions         0.09 Mb     (    407,   15)
        NL pseudopotentials             0.22 Mb     (    407,   36)
        Each V/rho on FFT grid          0.18 Mb     (  11664)
        Each G-vector array             0.02 Mb     (   3157)
        G-vector shells                 0.00 Mb     (    176)
     Largest temporary arrays     est. size (Mb)     dimensions
        Auxiliary wavefunctions         0.37 Mb     (    407,   60)
        Each subspace H/S matrix        0.05 Mb     (  60,  60)
        Each <psi_i|beta_j> matrix      0.01 Mb     (     36,   15)
        Arrays for rho mixing           1.42 Mb     (  11664,   8)

     Check: negative/imaginary core charge=   -0.000143    0.000000

     Initial potential from superposition of free atoms

     starting charge   21.99954, renormalised to   22.00000
     Starting wfc are   18 randomized atomic wfcs
     Checking if some PAW data can be deallocated... 

     total cpu time spent up to now is        2.6 secs

     per-process dynamical memory:    11.6 Mb

     Self-consistent Calculation

     iteration #  1     ecut=    50.00 Ry     beta=0.70
     Davidson diagonalization with overlap
     ethr =  1.00E-02,  avg # of iterations =  3.7

     Threshold (ethr) on eigenvalues was too large:
     Diagonalizing with lowered threshold

     Davidson diagonalization with overlap
     ethr =  1.75E-05,  avg # of iterations =  4.5

     total cpu time spent up to now is        8.7 secs

     total energy              =    -426.05740910 Ry
     Harris-Foulkes estimate   =    -426.05728889 Ry
     estimated scf accuracy    <       0.00512431 Ry

     iteration #  2     ecut=    50.00 Ry     beta=0.70
     Davidson diagonalization with overlap
     ethr =  2.33E-05,  avg # of iterations =  1.3

     total cpu time spent up to now is       11.0 secs

     total energy              =    -426.05669377 Ry
     Harris-Foulkes estimate   =    -426.05806751 Ry
     estimated scf accuracy    <       0.00225708 Ry

     iteration #  3     ecut=    50.00 Ry     beta=0.70
     Davidson diagonalization with overlap
     ethr =  1.03E-05,  avg # of iterations =  2.4

     total cpu time spent up to now is       13.8 secs

     total energy              =    -426.05704926 Ry
     Harris-Foulkes estimate   =    -426.05846284 Ry
     estimated scf accuracy    <       0.00448844 Ry

     iteration #  4     ecut=    50.00 Ry     beta=0.70
     Davidson diagonalization with overlap
     ethr =  1.03E-05,  avg # of iterations =  2.0

     total cpu time spent up to now is       16.4 secs

     total energy              =    -426.05771558 Ry
     Harris-Foulkes estimate   =    -426.05771738 Ry
     estimated scf accuracy    <       0.00000625 Ry

     iteration #  5     ecut=    50.00 Ry     beta=0.70
     Davidson diagonalization with overlap
     ethr =  2.84E-08,  avg # of iterations =  3.6

     total cpu time spent up to now is       19.6 secs

     total energy              =    -426.05772455 Ry
     Harris-Foulkes estimate   =    -426.05772451 Ry
     estimated scf accuracy    <       0.00000032 Ry

     iteration #  6     ecut=    50.00 Ry     beta=0.70
     Davidson diagonalization with overlap
     ethr =  1.45E-09,  avg # of iterations =  1.9

     total cpu time spent up to now is       21.9 secs

     End of self-consistent calculation

          k = 0.0000 0.0000 0.0000 (  1591 PWs)   bands (ev):

     0.7441   4.0229   4.0229   4.0229   4.0444   4.0444   5.0787   5.0787
     5.0787   5.7016   5.7016  16.4313  16.4313  16.4313  17.3860

          k =-0.1111 0.1111-0.1111 (  1573 PWs)   bands (ev):

     0.9324   3.9449   3.9449   4.0270   4.1519   4.1519   5.0414   5.0733
     5.0733   5.7023   5.7023  14.0780  15.6844  15.6844  17.8892

          k =-0.2222 0.2222-0.2222 (  1579 PWs)   bands (ev):

     1.4771   3.9130   3.9130   4.0451   4.2401   4.2401   4.9569   5.0875
     5.0875   5.6962   5.6962  11.3097  14.8155  14.8155  17.6985

          k =-0.3333 0.3333-0.3333 (  1591 PWs)   bands (ev):

     2.2827   3.9408   3.9408   4.0774   4.2387   4.2387   4.9401   5.1649
     5.1649   5.6694   5.6694   8.8618  14.1863  14.1863  17.6355

          k =-0.4444 0.4444-0.4444 (  1580 PWs)   bands (ev):

     3.0038   4.0084   4.0084   4.0776   4.1681   4.1681   5.2614   5.2614
     5.2998   5.6285   5.6285   6.9403  13.8555  13.8555  17.7524

          k = 0.0000 0.2222 0.0000 (  1575 PWs)   bands (ev):

     0.9957   3.8642   4.0332   4.0332   4.0992   4.2155   4.9309   5.1243
     5.1243   5.6568   5.7393  14.6696  14.6696  15.2610  16.5232

          k =-0.1111 0.3333-0.1111 (  1577 PWs)   bands (ev):

     1.4242   3.8098   4.0130   4.0425   4.1896   4.3098   4.8065   5.1516
     5.1767   5.6147   5.7608  12.2640  13.8034  14.6590  16.8400

          k =-0.2222 0.4444-0.2222 (  1583 PWs)   bands (ev):

     2.1547   3.8128   4.0222   4.0563   4.2241   4.3482   4.7643   5.1939
     5.2528   5.5799   5.7612   9.7302  13.2618  13.7748  16.7361

          k =-0.3333 0.5556-0.3333 (  1581 PWs)   bands (ev):

     2.9484   3.8579   4.0359   4.0636   4.2136   4.2905   4.9208   5.2849
     5.4115   5.5912   5.7310   7.5892  12.9932  13.1195  16.5858

          k = 0.5556-0.3333 0.5556 (  1579 PWs)   bands (ev):

     3.2253   3.9114   3.9747   4.0902   4.1917   4.2677   5.1232   5.1963
     5.6338   5.6682   5.8293   6.5874  12.4919  13.4036  16.7761

          k = 0.4444-0.2222 0.4444 (  1576 PWs)   bands (ev):

     2.7001   3.8913   3.9767   4.0890   4.1651   4.3451   4.9831   5.0655
     5.3948   5.5783   5.7330   8.2606  12.3631  14.0770  17.3169

          k = 0.3333-0.1111 0.3333 (  1579 PWs)   bands (ev):

     1.8818   3.8466   3.9858   4.0391   4.2034   4.3530   4.8931   4.9925
     5.2819   5.5986   5.7557  10.5573  12.6249  15.0281  18.1897

          k = 0.2222-0.0000 0.2222 (  1564 PWs)   bands (ev):

     1.2407   3.8645   3.9711   4.0360   4.1729   4.2653   4.9540   5.0150
     5.1762   5.6515   5.7408  13.0818  13.3464  15.9475  17.9206

          k = 0.0000 0.4444 0.0000 (  1587 PWs)   bands (ev):

     1.7322   3.7300   4.0519   4.0519   4.2553   4.3907   4.5961   5.2674
     5.2674   5.5258   5.7995  12.8597  12.8597  13.0505  15.5260

          k =-0.1111 0.5556-0.1111 (  1582 PWs)   bands (ev):

     2.3574   3.7080   4.0468   4.0551   4.3409   4.4292   4.4965   5.3391
     5.3581   5.4767   5.8317  10.7058  12.2363  12.3031  15.6582

          k =-0.2222 0.6667-0.2222 (  1592 PWs)   bands (ev):

     3.1196   3.7332   4.0126   4.0413   4.3677   4.3904   4.6307   5.2554
     5.5510   5.5819   5.8745   8.5277  11.3002  12.0461  15.6099

          k = 0.6667-0.2222 0.6667 (  1580 PWs)   bands (ev):

     3.5360   3.7753   3.9839   4.0177   4.2815   4.4491   4.8939   5.1053
     5.6985   5.7380   6.4271   6.7503  10.5339  12.3362  15.7841

          k = 0.5556-0.1111 0.5556 (  1580 PWs)   bands (ev):

     3.2602   3.8829   3.9033   4.0937   4.1578   4.5084   4.9585   5.0449
     5.6309   5.7039   5.7659   7.9851  10.1523  13.0661  16.2674

          k = 0.4444 0.0000 0.4444 (  1572 PWs)   bands (ev):

     2.5621   3.8465   3.9672   4.0605   4.1701   4.4747   4.9200   4.9368
     5.4886   5.5025   5.7821   9.9302  10.3716  14.0975  17.0754

          k = 0.0000 0.6667 0.0000 (  1580 PWs)   bands (ev):

     2.8647   3.6666   4.0622   4.0622   4.2194   4.4900   4.5256   5.3198
     5.4889   5.4889   5.9152  10.4450  11.4847  11.4847  14.9311

          k =-0.1111 0.7778-0.1111 (  1595 PWs)   bands (ev):

     3.5179   3.6864   3.9690   4.0549   4.2186   4.5516   4.5979   5.1771
     5.6178   5.6310   6.0804   9.0606  10.3271  11.1698  15.0353

          k = 0.7778-0.1111 0.7778 (  1591 PWs)   bands (ev):

     3.7036   3.8765   3.9298   4.0187   4.3117   4.6667   4.6739   5.0039
     5.7182   5.7943   6.6219   7.7104   9.0474  11.3715  15.1602

          k = 0.6667-0.0000 0.6667 (  1578 PWs)   bands (ev):

     3.6350   3.8878   3.9578   3.9910   4.2332   4.6734   4.8896   4.9071
     5.7642   5.8008   6.3846   7.8798   8.5357  12.0528  15.5572

          k = 0.0000 0.8889 0.0000 (  1596 PWs)   bands (ev):

     3.7157   3.8974   4.0342   4.0634   4.0634   4.5186   4.7701   5.0585
     5.6802   5.6802   6.4381   8.0395  10.7078  10.7078  14.7254

          k = 0.8889 0.0000 0.8889 (  1594 PWs)   bands (ev):

     3.7523   3.8182   4.0513   4.0601   4.3544   4.4604   4.8772   4.9100
     5.7189   5.7515   7.1451   7.1492   9.7684  10.7803  14.8466

          k =-0.2222 0.4444 0.0000 (  1580 PWs)   bands (ev):

     1.9517   3.7715   4.0291   4.0449   4.2334   4.4036   4.6795   5.1523
     5.3291   5.5405   5.7893  11.3930  11.7778  14.0712  17.0675

          k =-0.3333 0.5556-0.1111 (  1584 PWs)   bands (ev):

     2.7124   3.7883   3.9793   4.0890   4.2383   4.4434   4.7015   5.1894
     5.4505   5.5343   5.8003   9.1843  11.2540  13.0802  17.0785

          k = 0.5556-0.3333 0.7778 (  1579 PWs)   bands (ev):

     3.3495   3.8182   3.9244   4.1067   4.2589   4.3882   4.9064   5.1583
     5.6476   5.7160   5.9278   7.2193  11.1977  12.3495  16.9524

          k =-0.2222 0.6667 0.0000 (  1590 PWs)   bands (ev):

     3.0099   3.7036   3.9779   4.0827   4.3891   4.4174   4.5321   5.2626
     5.5135   5.5495   5.8981   9.8624  10.5959  11.5862  16.3186

          k = 0.6667-0.2222 0.8889 (  1588 PWs)   bands (ev):

     3.6017   3.7310   3.9016   4.0891   4.3953   4.4947   4.6543   5.1081
     5.6844   5.7344   6.1377   8.1918   9.9187  10.9706  16.4656

          k = 0.5556-0.1111 0.7778 (  1587 PWs)   bands (ev):

     3.6800   3.8050   3.8882   4.0897   4.3187   4.5716   4.8361   4.9758
     5.7533   5.7907   6.5793   7.2852   9.3808  11.2277  16.7608

          k = 0.4444 0.0000 0.6667 (  1581 PWs)   bands (ev):

     3.3491   3.8114   3.8904   4.1167   4.2450   4.5807   4.7135   5.1176
     5.6556   5.6825   5.8681   8.7697   9.3531  12.0350  17.2989

          k = 0.7778-0.1111 1.0000 (  1590 PWs)   bands (ev):

     3.7234   3.8298   3.9478   4.0800   4.3206   4.5225   4.7248   5.0193
     5.7282   5.7292   6.5062   8.0839   9.9644  10.1511  15.9950

          k = 0.6667-0.0000 0.8889 (  1593 PWs)   bands (ev):

     3.7202   3.8135   4.0164   4.0640   4.3856   4.6420   4.7813   4.8662
     5.7668   5.8192   7.1968   7.4107   8.7265  10.4054  16.2685

          k = 0.5556-0.1111 1.0000 (  1591 PWs)   bands (ev):

     3.7455   3.7563   3.9679   4.0933   4.4861   4.5986   4.6954   4.9128
     5.7929   5.8083   6.8128   7.9000   8.9394   9.8195  18.2065

     the Fermi energy is     6.8138 ev

!    total energy              =    -426.05772452 Ry
     Harris-Foulkes estimate   =    -426.05772458 Ry
     estimated scf accuracy    <       0.00000008 Ry

     total all-electron energy =     -6619.817261 Ry

     The total energy is the sum of the following terms:

     one-electron contribution =    -116.89470522 Ry
     hartree contribution      =      57.93829650 Ry
     xc contribution           =     -73.50078887 Ry
     ewald contribution        =    -127.80442424 Ry
     one-center paw contrib.   =    -165.79604205 Ry
     smearing contrib. (-TS)   =      -0.00006065 Ry

     convergence has been achieved in   6 iterations

     Writing output data file Cu.save

     init_run     :      1.71s CPU      1.81s WALL (       1 calls)
     electrons    :     18.86s CPU     19.29s WALL (       1 calls)

     Called by init_run:
     wfcinit      :      0.80s CPU      0.84s WALL (       1 calls)
     potinit      :      0.33s CPU      0.36s WALL (       1 calls)

     Called by electrons:
     c_bands      :     13.90s CPU     14.16s WALL (       7 calls)
     sum_band     :      2.56s CPU      2.62s WALL (       7 calls)
     v_of_rho     :      0.14s CPU      0.14s WALL (       7 calls)
     newd         :      0.23s CPU      0.23s WALL (       7 calls)
     mix_rho      :      0.19s CPU      0.19s WALL (       7 calls)

     Called by c_bands:
     init_us_2    :      0.28s CPU      0.28s WALL (     525 calls)
     cegterg      :     13.22s CPU     13.46s WALL (     245 calls)

     Called by *egterg:
     h_psi        :     11.51s CPU     11.73s WALL (     961 calls)
     s_psi        :      0.32s CPU      0.30s WALL (     961 calls)
     g_psi        :      0.08s CPU      0.08s WALL (     681 calls)
     cdiaghg      :      0.90s CPU      0.90s WALL (     891 calls)

     Called by h_psi:
     add_vuspsi   :      0.31s CPU      0.31s WALL (     961 calls)

     General routines
     calbec       :      0.51s CPU      0.49s WALL (    1206 calls)
     fft          :      0.07s CPU      0.07s WALL (      93 calls)
     fftw         :     11.83s CPU     11.72s WALL (   24611 calls)
     davcio       :      0.04s CPU      0.05s WALL (     770 calls)

     Parallel routines
     fft_scatter  :      2.11s CPU      2.22s WALL (   24704 calls)

     PAW routines
     PAW_pot      :      2.16s CPU      2.27s WALL (       7 calls)
     PAW_ddot     :      0.18s CPU      0.18s WALL (      37 calls)
     PAW_symme    :      0.01s CPU      0.01s WALL (      14 calls)

     PWSCF        :    21.56s CPU        22.14s WALL


   This run was terminated on:  20:18:39  11Jul2015            

=------------------------------------------------------------------------------=
   JOB DONE.
=------------------------------------------------------------------------------=
