
     Program PWSCF v.5.0.2 (svn rev. 9656) starts on 26Jul2015 at  2:27:50 

     This program is part of the open-source Quantum ESPRESSO suite
     for quantum simulation of materials; please cite
         "P. Giannozzi et al., J. Phys.:Condens. Matter 21 395502 (2009);
          URL http://www.quantum-espresso.org", 
     in publications or presentations arising from this work. More details at
     http://www.quantum-espresso.org/quote.php

     Parallel version (MPI), running on     4 processors
     R & G space division:  proc/nbgrp/npool/nimage =       4

     Current dimensions of program PWSCF are:
     Max number of different atomic species (ntypx) = 10
     Max number of k-points (npk) =  40000
     Max angular momentum in pseudopotentials (lmaxx) =  3
     Waiting for input...
     Reading input from standard input
               file C.pbe-rrkjus.UPF: wavefunction(s)  2S 2P renormalized

     Subspace diagonalization in iterative solution of the eigenvalue problem:
     a serial algorithm will be used


     Parallelization info
     --------------------
     sticks:   dense  smooth     PW     G-vecs:    dense   smooth      PW
     Min         211      94     30                58589    18426    3274
     Max         212      95     31                58614    18483    3317
     Sum         847     379    121               234415    73853   13157



     bravais-lattice index     =            0
     lattice parameter (alat)  =       4.6500  a.u.
     unit-cell volume          =    1044.8904 (a.u.)^3
     number of atoms/cell      =            2
     number of atomic types    =            1
     number of electrons       =         8.00
     number of Kohn-Sham states=            8
     kinetic-energy cutoff     =      65.0000  Ry
     charge density cutoff     =     560.0000  Ry
     convergence threshold     =      1.0E-08
     mixing beta               =       0.7000
     number of iterations used =            8  plain     mixing
     Exchange-correlation      =  SLA  PW   PBE  PBE ( 1 4 3 4 0)
     EXX-fraction              =        0.00

     celldm(1)=   4.650000  celldm(2)=   0.000000  celldm(3)=   0.000000
     celldm(4)=   0.000000  celldm(5)=   0.000000  celldm(6)=   0.000000

     crystal axes: (cart. coord. in units of alat)
               a(1) = (   1.000000   0.000000   0.000000 )  
               a(2) = (   0.500000   0.866025   0.000000 )  
               a(3) = (   0.000000   0.000000  12.000000 )  

     reciprocal axes: (cart. coord. in units 2 pi/alat)
               b(1) = (  1.000000 -0.577350  0.000000 )  
               b(2) = (  0.000000  1.154701  0.000000 )  
               b(3) = (  0.000000  0.000000  0.083333 )  


     PseudoPot. # 1 for C  read from file:
     ./C.pbe-rrkjus.UPF
     MD5 check sum: 00fb224312de0c5b6853bd333518df6f
     Pseudo is Ultrasoft, Zval =  4.0
     Generated by new atomic code, or converted to UPF format
     Using radial grid of  627 points,  4 beta functions with: 
                l(1) =   0
                l(2) =   0
                l(3) =   1
                l(4) =   1
     Q(r) pseudized with 0 coefficients 


     atomic species   valence    mass     pseudopotential
        C              4.00    12.00000     C ( 1.00)

     24 Sym. Ops., with inversion, found (12 have fractional translation)



   Cartesian axes

     site n.     atom                  positions (alat units)
         1           C   tau(   1) = (   0.0000000   0.0000000   0.0000000  )
         2           C   tau(   2) = (   1.0000000   0.5773503   0.0000000  )

     number of k points=    24  gaussian smearing, width (Ry)=  0.0010
                       cart. coord. in units 2pi/alat
        k(    1) = (   0.0000000   0.0000000   0.0000000), wk =   0.0102041
        k(    2) = (   0.0000000   0.0824786   0.0000000), wk =   0.0612245
        k(    3) = (   0.0000000   0.1649572   0.0000000), wk =   0.0612245
        k(    4) = (   0.0000000   0.2474358   0.0000000), wk =   0.0612245
        k(    5) = (   0.0000000   0.3299144   0.0000000), wk =   0.0612245
        k(    6) = (   0.0000000   0.4123931   0.0000000), wk =   0.0612245
        k(    7) = (   0.0000000   0.4948717   0.0000000), wk =   0.0612245
        k(    8) = (   0.0000000  -0.5773503   0.0000000), wk =   0.0306122
        k(    9) = (   0.0714286   0.1237179   0.0000000), wk =   0.0612245
        k(   10) = (   0.0714286   0.2061965   0.0000000), wk =   0.1224490
        k(   11) = (   0.0714286   0.2886751   0.0000000), wk =   0.1224490
        k(   12) = (   0.0714286   0.3711537   0.0000000), wk =   0.1224490
        k(   13) = (   0.0714286   0.4536324   0.0000000), wk =   0.1224490
        k(   14) = (   0.0714286  -0.6185896   0.0000000), wk =   0.1224490
        k(   15) = (   0.1428571   0.2474358   0.0000000), wk =   0.0612245
        k(   16) = (   0.1428571   0.3299144   0.0000000), wk =   0.1224490
        k(   17) = (   0.1428571   0.4123931   0.0000000), wk =   0.1224490
        k(   18) = (   0.1428571  -0.6598289   0.0000000), wk =   0.1224490
        k(   19) = (   0.1428571  -0.5773503   0.0000000), wk =   0.0612245
        k(   20) = (   0.2142857   0.3711537   0.0000000), wk =   0.0612245
        k(   21) = (   0.2142857  -0.7010682   0.0000000), wk =   0.1224490
        k(   22) = (   0.2142857  -0.6185896   0.0000000), wk =   0.1224490
        k(   23) = (   0.2857143  -0.6598289   0.0000000), wk =   0.0612245
        k(   24) = (   0.2857143  -0.5773503   0.0000000), wk =   0.0612245

     Dense  grid:   234415 G-vectors     FFT dimensions: (  36,  36, 432)

     Smooth grid:    73853 G-vectors     FFT dimensions: (  24,  24, 288)

     Largest allocated arrays     est. size (Mb)     dimensions
        Kohn-Sham Wavefunctions         0.29 Mb     (   2392,    8)
        NL pseudopotentials             0.58 Mb     (   2392,   16)
        Each V/rho on FFT grid          2.14 Mb     ( 139968)
        Each G-vector array             0.45 Mb     (  58604)
        G-vector shells                 0.14 Mb     (  17717)
     Largest temporary arrays     est. size (Mb)     dimensions
        Auxiliary wavefunctions         1.17 Mb     (   2392,   32)
        Each subspace H/S matrix        0.02 Mb     (  32,  32)
        Each <psi_i|beta_j> matrix      0.00 Mb     (     16,    8)
        Arrays for rho mixing          17.09 Mb     ( 139968,   8)

     Initial potential from superposition of free atoms

     starting charge    7.99989, renormalised to    8.00000

     negative rho (up, down):  0.254E-04 0.000E+00
     Starting wfc are    8 randomized atomic wfcs

     total cpu time spent up to now is        4.1 secs

     per-process dynamical memory:    36.7 Mb

     Self-consistent Calculation

     iteration #  1     ecut=    65.00 Ry     beta=0.70
     Davidson diagonalization with overlap
     ethr =  1.00E-02,  avg # of iterations =  5.0

     negative rho (up, down):  0.176E-04 0.000E+00

     total cpu time spent up to now is       14.0 secs

     total energy              =     -22.75965437 Ry
     Harris-Foulkes estimate   =     -22.88409448 Ry
     estimated scf accuracy    <       0.20652713 Ry

     iteration #  2     ecut=    65.00 Ry     beta=0.70
     Davidson diagonalization with overlap
     ethr =  2.58E-03,  avg # of iterations =  5.4

     negative rho (up, down):  0.170E-04 0.000E+00

     total cpu time spent up to now is       23.1 secs

     total energy              =     -22.79077456 Ry
     Harris-Foulkes estimate   =     -22.79091050 Ry
     estimated scf accuracy    <       0.00250947 Ry

     iteration #  3     ecut=    65.00 Ry     beta=0.70
     Davidson diagonalization with overlap
     ethr =  3.14E-05,  avg # of iterations = 11.4

     negative rho (up, down):  0.186E-04 0.000E+00

     total cpu time spent up to now is       37.1 secs

     total energy              =     -22.79112608 Ry
     Harris-Foulkes estimate   =     -22.79109603 Ry
     estimated scf accuracy    <       0.00013781 Ry

     iteration #  4     ecut=    65.00 Ry     beta=0.70
     Davidson diagonalization with overlap
     ethr =  1.72E-06,  avg # of iterations =  4.6

     negative rho (up, down):  0.187E-04 0.000E+00

     total cpu time spent up to now is       46.8 secs

     total energy              =     -22.79113155 Ry
     Harris-Foulkes estimate   =     -22.79113074 Ry
     estimated scf accuracy    <       0.00000091 Ry

     iteration #  5     ecut=    65.00 Ry     beta=0.70
     Davidson diagonalization with overlap
     ethr =  1.14E-08,  avg # of iterations =  2.5

     negative rho (up, down):  0.187E-04 0.000E+00

     total cpu time spent up to now is       56.2 secs

     total energy              =     -22.79113189 Ry
     Harris-Foulkes estimate   =     -22.79113188 Ry
     estimated scf accuracy    <       0.00000002 Ry

     iteration #  6     ecut=    65.00 Ry     beta=0.70
     Davidson diagonalization with overlap
     ethr =  3.12E-10,  avg # of iterations =  2.0

     negative rho (up, down):  0.186E-04 0.000E+00

     total cpu time spent up to now is       64.7 secs

     End of self-consistent calculation

          k = 0.0000 0.0000 0.0000 (  9149 PWs)   bands (ev):

   -22.4915 -10.6018  -6.0247  -6.0247   0.3036   1.0417   1.2090   1.5613

          k = 0.0000 0.0825 0.0000 (  9135 PWs)   bands (ev):

   -22.3708 -10.4572  -6.5068  -6.2785   0.4678   1.2087   1.3779   1.7293

          k = 0.0000 0.1650 0.0000 (  9157 PWs)   bands (ev):

   -22.0096 -10.0261  -7.7704  -6.9081   0.9607   1.7093   1.8845   2.2331

          k = 0.0000 0.2474 0.0000 (  9210 PWs)   bands (ev):

   -21.4109  -9.4726  -9.3182  -7.6699   1.7812   2.5403   2.7288   3.0713

          k = 0.0000 0.3299 0.0000 (  9218 PWs)   bands (ev):

   -20.5805 -11.3448  -8.3816  -8.3551   2.9259   3.2623   3.7637   3.9107

          k = 0.0000 0.4124 0.0000 (  9220 PWs)   bands (ev):

   -19.5294 -13.2204  -8.9401  -7.1884   1.3270   4.3610   4.7806   5.2143

          k = 0.0000 0.4949 0.0000 (  9244 PWs)   bands (ev):

   -18.2867 -14.9854  -9.2918  -5.9773  -0.4215   4.5579   6.1957   7.0211

          k = 0.0000-0.5774 0.0000 (  9256 PWs)   bands (ev):

   -17.2296 -16.2209  -9.4115  -5.3191  -1.2671   4.5015   8.1870   8.3399

          k = 0.0714 0.1237 0.0000 (  9148 PWs)   bands (ev):

   -22.1298 -10.1693  -7.3142  -6.7865   0.7965   1.5426   1.7156   2.0653

          k = 0.0714 0.2062 0.0000 (  9186 PWs)   bands (ev):

   -21.6499  -9.5994  -8.6897  -7.5918   1.4536   2.2090   2.3911   2.7366

          k = 0.0714 0.2887 0.0000 (  9226 PWs)   bands (ev):

   -20.9354 -10.4122  -8.7619  -8.3948   2.4374   3.1974   3.4043   3.7344

          k = 0.0714 0.3712 0.0000 (  9234 PWs)   bands (ev):

   -19.9943 -12.2548  -9.0616  -7.6892   2.2277   3.7422   4.5469   4.7547

          k = 0.0714 0.4536 0.0000 (  9238 PWs)   bands (ev):

   -18.8436 -14.0643  -9.5307  -6.4664   0.3570   5.1172   5.4320   6.1899

          k = 0.0714-0.6186 0.0000 (  9264 PWs)   bands (ev):

   -17.5582 -15.6942  -9.7717  -5.4008  -1.0582   5.0472   7.3089   8.1226

          k = 0.1429 0.2474 0.0000 (  9224 PWs)   bands (ev):

   -21.0541  -9.8596  -8.8987  -8.6666   2.2746   3.0395   3.2354   3.5748

          k = 0.1429 0.3299 0.0000 (  9255 PWs)   bands (ev):

   -20.2288 -11.3522  -9.6267  -7.9448   2.8296   3.4202   4.1989   4.4175

          k = 0.1429 0.4124 0.0000 (  9273 PWs)   bands (ev):

   -19.1861 -13.0466 -10.2888  -6.7857   1.0530   4.8828   5.6704   5.9369

          k = 0.1429-0.6598 0.0000 (  9289 PWs)   bands (ev):

   -17.9576 -14.7252 -10.6778  -5.5656  -0.5822   6.4549   6.7122   7.4075

          k = 0.1429-0.5774 0.0000 (  9314 PWs)   bands (ev):

   -16.9204 -15.9207 -10.8068  -4.8779  -1.4163   6.4403   8.6031   8.7892

          k = 0.2143 0.3712 0.0000 (  9268 PWs)   bands (ev):

   -19.3013 -12.3819 -10.8982  -6.8959   1.3486   4.7229   5.4895   5.7683

          k = 0.2143-0.7011 0.0000 (  9282 PWs)   bands (ev):

   -18.1737 -13.7229 -11.7107  -5.6832  -0.1827   6.3304   7.0065   7.4563

          k = 0.2143-0.6186 0.0000 (  9320 PWs)   bands (ev):

   -16.9260 -15.1683 -12.0545  -4.5565  -1.4816   8.1528   8.1583   8.3924

          k = 0.2857-0.6598 0.0000 (  9306 PWs)   bands (ev):

   -16.9989 -14.4691 -12.8679  -4.4610  -1.4501   7.8171   8.0385   9.3117

          k = 0.2857-0.5774 0.0000 (  9340 PWs)   bands (ev):

   -15.9957 -15.3315 -13.2631  -3.5698  -2.3502   7.7878   9.6495   9.7593

     the Fermi energy is    -3.3375 ev

!    total energy              =     -22.79113189 Ry
     Harris-Foulkes estimate   =     -22.79113189 Ry
     estimated scf accuracy    <          5.6E-10 Ry

     The total energy is the sum of the following terms:

     one-electron contribution =    -353.76078150 Ry
     hartree contribution      =     177.89010660 Ry
     xc contribution           =      -7.02469842 Ry
     ewald contribution        =     160.10424143 Ry
     smearing contrib. (-TS)   =      -0.00000000 Ry

     convergence has been achieved in   6 iterations

     Writing output data file graphene.save

     init_run     :      3.89s CPU      4.03s WALL (       1 calls)
     electrons    :     57.65s CPU     60.65s WALL (       1 calls)

     Called by init_run:
     wfcinit      :      1.51s CPU      1.57s WALL (       1 calls)
     potinit      :      1.08s CPU      1.11s WALL (       1 calls)

     Called by electrons:
     c_bands      :     40.46s CPU     42.40s WALL (       6 calls)
     sum_band     :     11.11s CPU     11.68s WALL (       6 calls)
     v_of_rho     :      2.52s CPU      2.72s WALL (       7 calls)
     newd         :      3.07s CPU      3.24s WALL (       7 calls)
     mix_rho      :      0.38s CPU      0.44s WALL (       6 calls)

     Called by c_bands:
     init_us_2    :      0.65s CPU      0.77s WALL (     312 calls)
     cegterg      :     39.61s CPU     41.33s WALL (     144 calls)

     Called by *egterg:
     h_psi        :     36.01s CPU     37.58s WALL (     909 calls)
     s_psi        :      0.62s CPU      0.62s WALL (     909 calls)
     g_psi        :      0.20s CPU      0.21s WALL (     741 calls)
     cdiaghg      :      0.40s CPU      0.40s WALL (     885 calls)

     Called by h_psi:
     add_vuspsi   :      0.60s CPU      0.63s WALL (     909 calls)

     General routines
     calbec       :      1.17s CPU      1.22s WALL (    1053 calls)
     fft          :      2.45s CPU      2.63s WALL (     107 calls)
     ffts         :      0.08s CPU      0.08s WALL (      13 calls)
     fftw         :     25.52s CPU     26.91s WALL (    8794 calls)
     interpolate  :      0.51s CPU      0.53s WALL (      13 calls)
     davcio       :      0.21s CPU      0.26s WALL (     456 calls)

     Parallel routines
     fft_scatter  :     14.48s CPU     15.68s WALL (    8914 calls)

     PWSCF        :  1m 1.87s CPU     1m 5.04s WALL


   This run was terminated on:   2:28:55  26Jul2015            

=------------------------------------------------------------------------------=
   JOB DONE.
=------------------------------------------------------------------------------=
