
     Program PWSCF v.5.0.2 (svn rev. 9656) starts on 12Jul2015 at  2:12:11 

     This program is part of the open-source Quantum ESPRESSO suite
     for quantum simulation of materials; please cite
         "P. Giannozzi et al., J. Phys.:Condens. Matter 21 395502 (2009);
          URL http://www.quantum-espresso.org", 
     in publications or presentations arising from this work. More details at
     http://www.quantum-espresso.org/quote.php

     Parallel version (MPI), running on     4 processors
     R & G space division:  proc/nbgrp/npool/nimage =       4

     Current dimensions of program PWSCF are:
     Max number of different atomic species (ntypx) = 10
     Max number of k-points (npk) =  40000
     Max angular momentum in pseudopotentials (lmaxx) =  3
     Waiting for input...
     Reading input from standard input
               file Al.pbe-n-kjpaw_psl.0.1.UPF: wavefunction(s)  3S renormalized

     Subspace diagonalization in iterative solution of the eigenvalue problem:
     a serial algorithm will be used


     Parallelization info
     --------------------
     sticks:   dense  smooth     PW     G-vecs:    dense   smooth      PW
     Min         118     118     37                 1718     1718     309
     Max         119     119     38                 1721     1721     312
     Sum         475     475    151                 6879     6879    1243



     bravais-lattice index     =            2
     lattice parameter (alat)  =       7.6300  a.u.
     unit-cell volume          =     111.0487 (a.u.)^3
     number of atoms/cell      =            1
     number of atomic types    =            1
     number of electrons       =         3.00
     number of Kohn-Sham states=            6
     kinetic-energy cutoff     =      60.0000  Ry
     charge density cutoff     =     240.0000  Ry
     convergence threshold     =      1.0E-07
     mixing beta               =       0.7000
     number of iterations used =            8  plain     mixing
     Exchange-correlation      =  SLA  PW   PBX  PBC ( 1 4 3 4 0)
     EXX-fraction              =        0.00

     celldm(1)=   7.630000  celldm(2)=   0.000000  celldm(3)=   0.000000
     celldm(4)=   0.000000  celldm(5)=   0.000000  celldm(6)=   0.000000

     crystal axes: (cart. coord. in units of alat)
               a(1) = (  -0.500000   0.000000   0.500000 )  
               a(2) = (   0.000000   0.500000   0.500000 )  
               a(3) = (  -0.500000   0.500000   0.000000 )  

     reciprocal axes: (cart. coord. in units 2 pi/alat)
               b(1) = ( -1.000000 -1.000000  1.000000 )  
               b(2) = (  1.000000  1.000000  1.000000 )  
               b(3) = ( -1.000000  1.000000 -1.000000 )  


     PseudoPot. # 1 for Al read from file:
     ./Al.pbe-n-kjpaw_psl.0.1.UPF
     MD5 check sum: 023d9faf819c76fc4df1f064efe7b7b2
     Pseudo is Projector augmented-wave + core cor, Zval =  3.0
     Generated using "atomic" code by A. Dal Corso  v.5.0.2 svn rev. 9415
     Shape of augmentation charge: PSQ
     Using radial grid of 1135 points,  4 beta functions with: 
                l(1) =   0
                l(2) =   0
                l(3) =   1
                l(4) =   1
     Q(r) pseudized with 0 coefficients 


     atomic species   valence    mass     pseudopotential
        Al             3.00    26.98154     Al( 1.00)

     48 Sym. Ops., with inversion, found



   Cartesian axes

     site n.     atom                  positions (alat units)
         1           Al  tau(   1) = (   0.0000000   0.0000000   0.0000000  )

     number of k points=    29  gaussian smearing, width (Ry)=  0.0030
                       cart. coord. in units 2pi/alat
        k(    1) = (   0.0000000   0.0000000   0.0000000), wk =   0.0039062
        k(    2) = (  -0.1250000   0.1250000  -0.1250000), wk =   0.0312500
        k(    3) = (  -0.2500000   0.2500000  -0.2500000), wk =   0.0312500
        k(    4) = (  -0.3750000   0.3750000  -0.3750000), wk =   0.0312500
        k(    5) = (   0.5000000  -0.5000000   0.5000000), wk =   0.0156250
        k(    6) = (   0.0000000   0.2500000   0.0000000), wk =   0.0234375
        k(    7) = (  -0.1250000   0.3750000  -0.1250000), wk =   0.0937500
        k(    8) = (  -0.2500000   0.5000000  -0.2500000), wk =   0.0937500
        k(    9) = (   0.6250000  -0.3750000   0.6250000), wk =   0.0937500
        k(   10) = (   0.5000000  -0.2500000   0.5000000), wk =   0.0937500
        k(   11) = (   0.3750000  -0.1250000   0.3750000), wk =   0.0937500
        k(   12) = (   0.2500000   0.0000000   0.2500000), wk =   0.0468750
        k(   13) = (   0.0000000   0.5000000   0.0000000), wk =   0.0234375
        k(   14) = (  -0.1250000   0.6250000  -0.1250000), wk =   0.0937500
        k(   15) = (   0.7500000  -0.2500000   0.7500000), wk =   0.0937500
        k(   16) = (   0.6250000  -0.1250000   0.6250000), wk =   0.0937500
        k(   17) = (   0.5000000   0.0000000   0.5000000), wk =   0.0468750
        k(   18) = (   0.0000000   0.7500000   0.0000000), wk =   0.0234375
        k(   19) = (   0.8750000  -0.1250000   0.8750000), wk =   0.0937500
        k(   20) = (   0.7500000   0.0000000   0.7500000), wk =   0.0468750
        k(   21) = (   0.0000000  -1.0000000   0.0000000), wk =   0.0117188
        k(   22) = (  -0.2500000   0.5000000   0.0000000), wk =   0.0937500
        k(   23) = (   0.6250000  -0.3750000   0.8750000), wk =   0.1875000
        k(   24) = (   0.5000000  -0.2500000   0.7500000), wk =   0.0937500
        k(   25) = (   0.7500000  -0.2500000   1.0000000), wk =   0.0937500
        k(   26) = (   0.6250000  -0.1250000   0.8750000), wk =   0.1875000
        k(   27) = (   0.5000000   0.0000000   0.7500000), wk =   0.0937500
        k(   28) = (  -0.2500000  -1.0000000   0.0000000), wk =   0.0468750
        k(   29) = (  -0.5000000  -1.0000000   0.0000000), wk =   0.0234375

     Dense  grid:     6879 G-vectors     FFT dimensions: (  27,  27,  27)

     Largest allocated arrays     est. size (Mb)     dimensions
        Kohn-Sham Wavefunctions         0.02 Mb     (    228,    6)
        NL pseudopotentials             0.03 Mb     (    228,    8)
        Each V/rho on FFT grid          0.08 Mb     (   5103)
        Each G-vector array             0.01 Mb     (   1720)
        G-vector shells                 0.00 Mb     (    119)
     Largest temporary arrays     est. size (Mb)     dimensions
        Auxiliary wavefunctions         0.08 Mb     (    228,   24)
        Each subspace H/S matrix        0.01 Mb     (  24,  24)
        Each <psi_i|beta_j> matrix      0.00 Mb     (      8,    6)
        Arrays for rho mixing           0.62 Mb     (   5103,   8)

     Initial potential from superposition of free atoms

     starting charge    2.99771, renormalised to    3.00000
     Starting wfc are    4 randomized atomic wfcs
     Checking if some PAW data can be deallocated... 

     total cpu time spent up to now is        0.9 secs

     per-process dynamical memory:     9.1 Mb

     Self-consistent Calculation

     iteration #  1     ecut=    60.00 Ry     beta=0.70
     Davidson diagonalization with overlap
     ethr =  1.00E-02,  avg # of iterations =  5.0

     Threshold (ethr) on eigenvalues was too large:
     Diagonalizing with lowered threshold

     Davidson diagonalization with overlap
     ethr =  1.97E-04,  avg # of iterations =  2.3

     total cpu time spent up to now is        1.8 secs

     total energy              =     -39.50253278 Ry
     Harris-Foulkes estimate   =     -39.50389072 Ry
     estimated scf accuracy    <       0.00560442 Ry

     iteration #  2     ecut=    60.00 Ry     beta=0.70
     Davidson diagonalization with overlap
     ethr =  1.87E-04,  avg # of iterations =  1.0

     total cpu time spent up to now is        2.2 secs

     total energy              =     -39.50250078 Ry
     Harris-Foulkes estimate   =     -39.50260267 Ry
     estimated scf accuracy    <       0.00041578 Ry

     iteration #  3     ecut=    60.00 Ry     beta=0.70
     Davidson diagonalization with overlap
     ethr =  1.39E-05,  avg # of iterations =  1.7

     total cpu time spent up to now is        2.5 secs

     total energy              =     -39.50252226 Ry
     Harris-Foulkes estimate   =     -39.50252287 Ry
     estimated scf accuracy    <       0.00000155 Ry

     iteration #  4     ecut=    60.00 Ry     beta=0.70
     Davidson diagonalization with overlap
     ethr =  5.16E-08,  avg # of iterations =  3.1

     total cpu time spent up to now is        3.0 secs

     End of self-consistent calculation

          k = 0.0000 0.0000 0.0000 (   893 PWs)   bands (ev):

    -3.2223  20.5731  20.5731  22.0522  22.0522  22.0522

          k =-0.1250 0.1250-0.1250 (   893 PWs)   bands (ev):

    -2.7972  16.2627  19.6246  19.6246  22.6654  23.5978

          k =-0.2500 0.2500-0.2500 (   881 PWs)   bands (ev):

    -1.5295  11.3805  18.8571  18.8571  22.3072  22.7074

          k =-0.3750 0.3750-0.3750 (   869 PWs)   bands (ev):

     0.5592   7.0671  18.7657  18.7657  20.7153  20.7153

          k = 0.5000-0.5000 0.5000 (   862 PWs)   bands (ev):

     3.3269   3.5527  19.3577  19.3577  19.4113  19.4113

          k = 0.0000 0.2500 0.0000 (   889 PWs)   bands (ev):

    -2.6558  17.8620  17.8620  18.1028  20.9028  22.5892

          k =-0.1250 0.3750-0.1250 (   873 PWs)   bands (ev):

    -1.6698  13.2450  16.7954  18.3114  19.5574  22.0966

          k =-0.2500 0.5000-0.2500 (   876 PWs)   bands (ev):

     0.1436   8.7705  16.4468  17.1676  18.1585  24.1956

          k = 0.6250-0.3750 0.6250 (   869 PWs)   bands (ev):

     2.7505   4.9307  15.5405  16.8203  18.5951  22.6771

          k = 0.5000-0.2500 0.5000 (   869 PWs)   bands (ev):

     1.7974   6.1280  14.6583  17.9172  19.7808  21.8311

          k = 0.3750-0.1250 0.3750 (   876 PWs)   bands (ev):

    -0.5510  10.1748  14.5598  19.7199  21.6709  21.6749

          k = 0.2500 0.0000 0.2500 (   887 PWs)   bands (ev):

    -2.0915  14.3915  15.6448  21.6739  21.9983  23.3169

          k = 0.0000 0.5000 0.0000 (   881 PWs)   bands (ev):

    -0.9697  15.4219  15.4667  15.4667  16.2054  18.9649

          k =-0.1250 0.6250-0.1250 (   868 PWs)   bands (ev):

     0.5576  11.1628  13.5286  14.8674  16.3351  20.3754

          k = 0.7500-0.2500 0.7500 (   866 PWs)   bands (ev):

     2.8812   7.1782  11.5992  14.9945  16.6810  24.0511

          k = 0.6250-0.1250 0.6250 (   869 PWs)   bands (ev):

     3.8318   5.9546  10.4745  15.8482  17.6748  25.6060

          k = 0.5000 0.0000 0.5000 (   867 PWs)   bands (ev):

     1.2481   9.1742  10.6956  17.4291  19.3952  24.9374

          k = 0.0000 0.7500 0.0000 (   866 PWs)   bands (ev):

     1.7904  10.5265  13.7578  14.0214  14.0214  17.5310

          k = 0.8750-0.1250 0.8750 (   867 PWs)   bands (ev):

     3.7971   8.3086  10.1511  13.9030  15.2660  19.4358

          k = 0.7500 0.0000 0.7500 (   874 PWs)   bands (ev):

     6.0431   6.5689   7.5428  14.5110  16.1534  23.6352

          k = 0.0000-1.0000 0.0000 (   846 PWs)   bands (ev):

     5.0025   6.3341  13.1987  13.5400  13.5400  17.0190

          k =-0.2500 0.5000 0.0000 (   866 PWs)   bands (ev):

    -0.4120  11.7886  13.2047  16.7308  20.0915  21.8766

          k = 0.6250-0.3750 0.8750 (   872 PWs)   bands (ev):

     1.6591   8.0703  12.5224  14.5913  20.7223  22.8160

          k = 0.5000-0.2500 0.7500 (   870 PWs)   bands (ev):

     4.3764   4.6464  12.9111  13.4024  21.2496  21.6829

          k = 0.7500-0.2500 1.0000 (   863 PWs)   bands (ev):

     2.3370  10.2207  10.9326  11.8491  18.5951  20.6244

          k = 0.6250-0.1250 0.8750 (   873 PWs)   bands (ev):

     4.8658   7.0035   9.3962  11.5702  19.7869  23.9361

          k = 0.5000 0.0000 0.7500 (   872 PWs)   bands (ev):

     3.9631   7.6074   9.0917  12.6762  21.0065  24.2522

          k =-0.2500-1.0000 0.0000 (   870 PWs)   bands (ev):

     5.5226   6.8759   9.6975  11.2263  18.0850  20.1687

          k =-0.5000-1.0000 0.0000 (   876 PWs)   bands (ev):

     7.0856   7.0856   8.0992   9.0560  23.7773  24.3114

     the Fermi energy is     8.0396 ev

!    total energy              =     -39.50252337 Ry
     Harris-Foulkes estimate   =     -39.50252341 Ry
     estimated scf accuracy    <       0.00000008 Ry

     total all-electron energy =      -485.645305 Ry

     The total energy is the sum of the following terms:

     one-electron contribution =       3.16910417 Ry
     hartree contribution      =       0.00607610 Ry
     xc contribution           =      -3.03189058 Ry
     ewald contribution        =      -5.40809419 Ry
     one-center paw contrib.   =     -34.23762654 Ry
     smearing contrib. (-TS)   =      -0.00009233 Ry

     convergence has been achieved in   4 iterations

     Writing output data file Al.save

     init_run     :      0.43s CPU      0.46s WALL (       1 calls)
     electrons    :      2.03s CPU      2.11s WALL (       1 calls)

     Called by init_run:
     wfcinit      :      0.10s CPU      0.11s WALL (       1 calls)
     potinit      :      0.06s CPU      0.07s WALL (       1 calls)

     Called by electrons:
     c_bands      :      1.48s CPU      1.53s WALL (       5 calls)
     sum_band     :      0.28s CPU      0.29s WALL (       5 calls)
     v_of_rho     :      0.04s CPU      0.04s WALL (       5 calls)
     newd         :      0.02s CPU      0.02s WALL (       5 calls)
     mix_rho      :      0.02s CPU      0.02s WALL (       5 calls)

     Called by c_bands:
     init_us_2    :      0.06s CPU      0.05s WALL (     319 calls)
     cegterg      :      1.43s CPU      1.48s WALL (     145 calls)

     Called by *egterg:
     h_psi        :      1.28s CPU      1.33s WALL (     553 calls)
     s_psi        :      0.01s CPU      0.01s WALL (     553 calls)
     g_psi        :      0.01s CPU      0.01s WALL (     379 calls)
     cdiaghg      :      0.11s CPU      0.10s WALL (     495 calls)

     Called by h_psi:
     add_vuspsi   :      0.01s CPU      0.01s WALL (     553 calls)

     General routines
     calbec       :      0.02s CPU      0.03s WALL (     698 calls)
     fft          :      0.03s CPU      0.03s WALL (      67 calls)
     fftw         :      1.40s CPU      1.38s WALL (    5822 calls)
     davcio       :      0.01s CPU      0.01s WALL (     464 calls)

     Parallel routines
     fft_scatter  :      0.22s CPU      0.29s WALL (    5889 calls)

     PAW routines
     PAW_pot      :      0.25s CPU      0.26s WALL (       5 calls)
     PAW_ddot     :      0.02s CPU      0.02s WALL (      12 calls)
     PAW_symme    :      0.00s CPU      0.00s WALL (      10 calls)

     PWSCF        :     3.03s CPU         3.17s WALL


   This run was terminated on:   2:12:15  12Jul2015            

=------------------------------------------------------------------------------=
   JOB DONE.
=------------------------------------------------------------------------------=
