
     Program PWSCF v.5.0.2 (svn rev. 9656) starts on 12Jul2015 at  2:11:59 

     This program is part of the open-source Quantum ESPRESSO suite
     for quantum simulation of materials; please cite
         "P. Giannozzi et al., J. Phys.:Condens. Matter 21 395502 (2009);
          URL http://www.quantum-espresso.org", 
     in publications or presentations arising from this work. More details at
     http://www.quantum-espresso.org/quote.php

     Parallel version (MPI), running on     4 processors
     R & G space division:  proc/nbgrp/npool/nimage =       4

     Current dimensions of program PWSCF are:
     Max number of different atomic species (ntypx) = 10
     Max number of k-points (npk) =  40000
     Max angular momentum in pseudopotentials (lmaxx) =  3
     Waiting for input...
     Reading input from standard input
               file Al.pbe-n-kjpaw_psl.0.1.UPF: wavefunction(s)  3S renormalized

     Subspace diagonalization in iterative solution of the eigenvalue problem:
     a serial algorithm will be used


     Parallelization info
     --------------------
     sticks:   dense  smooth     PW     G-vecs:    dense   smooth      PW
     Min         109     109     37                 1545     1545     284
     Max         110     110     38                 1546     1546     285
     Sum         439     439    151                 6183     6183    1139



     bravais-lattice index     =            2
     lattice parameter (alat)  =       7.6300  a.u.
     unit-cell volume          =     111.0487 (a.u.)^3
     number of atoms/cell      =            1
     number of atomic types    =            1
     number of electrons       =         3.00
     number of Kohn-Sham states=            6
     kinetic-energy cutoff     =      55.0000  Ry
     charge density cutoff     =     220.0000  Ry
     convergence threshold     =      1.0E-07
     mixing beta               =       0.7000
     number of iterations used =            8  plain     mixing
     Exchange-correlation      =  SLA  PW   PBX  PBC ( 1 4 3 4 0)
     EXX-fraction              =        0.00

     celldm(1)=   7.630000  celldm(2)=   0.000000  celldm(3)=   0.000000
     celldm(4)=   0.000000  celldm(5)=   0.000000  celldm(6)=   0.000000

     crystal axes: (cart. coord. in units of alat)
               a(1) = (  -0.500000   0.000000   0.500000 )  
               a(2) = (   0.000000   0.500000   0.500000 )  
               a(3) = (  -0.500000   0.500000   0.000000 )  

     reciprocal axes: (cart. coord. in units 2 pi/alat)
               b(1) = ( -1.000000 -1.000000  1.000000 )  
               b(2) = (  1.000000  1.000000  1.000000 )  
               b(3) = ( -1.000000  1.000000 -1.000000 )  


     PseudoPot. # 1 for Al read from file:
     ./Al.pbe-n-kjpaw_psl.0.1.UPF
     MD5 check sum: 023d9faf819c76fc4df1f064efe7b7b2
     Pseudo is Projector augmented-wave + core cor, Zval =  3.0
     Generated using "atomic" code by A. Dal Corso  v.5.0.2 svn rev. 9415
     Shape of augmentation charge: PSQ
     Using radial grid of 1135 points,  4 beta functions with: 
                l(1) =   0
                l(2) =   0
                l(3) =   1
                l(4) =   1
     Q(r) pseudized with 0 coefficients 


     atomic species   valence    mass     pseudopotential
        Al             3.00    26.98154     Al( 1.00)

     48 Sym. Ops., with inversion, found



   Cartesian axes

     site n.     atom                  positions (alat units)
         1           Al  tau(   1) = (   0.0000000   0.0000000   0.0000000  )

     number of k points=   145  gaussian smearing, width (Ry)=  0.0030

     Number of k-points >= 100: set verbosity='high' to print them.

     Dense  grid:     6183 G-vectors     FFT dimensions: (  25,  25,  25)

     Largest allocated arrays     est. size (Mb)     dimensions
        Kohn-Sham Wavefunctions         0.02 Mb     (    193,    6)
        NL pseudopotentials             0.02 Mb     (    193,    8)
        Each V/rho on FFT grid          0.07 Mb     (   4375)
        Each G-vector array             0.01 Mb     (   1546)
        G-vector shells                 0.00 Mb     (    110)
     Largest temporary arrays     est. size (Mb)     dimensions
        Auxiliary wavefunctions         0.07 Mb     (    193,   24)
        Each subspace H/S matrix        0.01 Mb     (  24,  24)
        Each <psi_i|beta_j> matrix      0.00 Mb     (      8,    6)
        Arrays for rho mixing           0.53 Mb     (   4375,   8)

     Check: negative/imaginary core charge=   -0.000004    0.000000

     Initial potential from superposition of free atoms

     starting charge    2.99771, renormalised to    3.00000
     Starting wfc are    4 randomized atomic wfcs
     Checking if some PAW data can be deallocated... 

     total cpu time spent up to now is        1.1 secs

     per-process dynamical memory:     8.9 Mb

     Self-consistent Calculation

     iteration #  1     ecut=    55.00 Ry     beta=0.70
     Davidson diagonalization with overlap
     ethr =  1.00E-02,  avg # of iterations =  4.8

     Threshold (ethr) on eigenvalues was too large:
     Diagonalizing with lowered threshold

     Davidson diagonalization with overlap
     ethr =  1.95E-04,  avg # of iterations =  2.2

     total cpu time spent up to now is        3.8 secs

     total energy              =     -39.50344058 Ry
     Harris-Foulkes estimate   =     -39.50483476 Ry
     estimated scf accuracy    <       0.00556674 Ry

     iteration #  2     ecut=    55.00 Ry     beta=0.70
     Davidson diagonalization with overlap
     ethr =  1.86E-04,  avg # of iterations =  1.0

     total cpu time spent up to now is        4.7 secs

     total energy              =     -39.50340229 Ry
     Harris-Foulkes estimate   =     -39.50350781 Ry
     estimated scf accuracy    <       0.00040464 Ry

     iteration #  3     ecut=    55.00 Ry     beta=0.70
     Davidson diagonalization with overlap
     ethr =  1.35E-05,  avg # of iterations =  1.7

     total cpu time spent up to now is        5.7 secs

     total energy              =     -39.50342260 Ry
     Harris-Foulkes estimate   =     -39.50342314 Ry
     estimated scf accuracy    <       0.00000130 Ry

     iteration #  4     ecut=    55.00 Ry     beta=0.70
     Davidson diagonalization with overlap
     ethr =  4.32E-08,  avg # of iterations =  3.3

     total cpu time spent up to now is        6.9 secs

     End of self-consistent calculation

     Number of k-points >= 100: set verbosity='high' to print the bands.

     the Fermi energy is     7.9625 ev

!    total energy              =     -39.50342393 Ry
     Harris-Foulkes estimate   =     -39.50342397 Ry
     estimated scf accuracy    <       0.00000009 Ry

     total all-electron energy =      -485.646206 Ry

     The total energy is the sum of the following terms:

     one-electron contribution =       3.16784603 Ry
     hartree contribution      =       0.00568024 Ry
     xc contribution           =      -3.03148088 Ry
     ewald contribution        =      -5.40809419 Ry
     one-center paw contrib.   =     -34.23736167 Ry
     smearing contrib. (-TS)   =      -0.00001344 Ry

     convergence has been achieved in   4 iterations

     Writing output data file Al.save

     init_run     :      0.64s CPU      0.67s WALL (       1 calls)
     electrons    :      5.60s CPU      5.85s WALL (       1 calls)

     Called by init_run:
     wfcinit      :      0.32s CPU      0.34s WALL (       1 calls)
     potinit      :      0.07s CPU      0.07s WALL (       1 calls)

     Called by electrons:
     c_bands      :      4.56s CPU      4.78s WALL (       5 calls)
     sum_band     :      0.76s CPU      0.78s WALL (       5 calls)
     v_of_rho     :      0.03s CPU      0.03s WALL (       5 calls)
     newd         :      0.02s CPU      0.01s WALL (       5 calls)
     mix_rho      :      0.02s CPU      0.02s WALL (       5 calls)

     Called by c_bands:
     init_us_2    :      0.24s CPU      0.20s WALL (    1595 calls)
     cegterg      :      4.36s CPU      4.57s WALL (     725 calls)

     Called by *egterg:
     h_psi        :      3.49s CPU      3.69s WALL (    2753 calls)
     s_psi        :      0.06s CPU      0.06s WALL (    2753 calls)
     g_psi        :      0.04s CPU      0.05s WALL (    1883 calls)
     cdiaghg      :      0.60s CPU      0.57s WALL (    2463 calls)

     Called by h_psi:
     add_vuspsi   :      0.05s CPU      0.06s WALL (    2753 calls)

     General routines
     calbec       :      0.12s CPU      0.13s WALL (    3478 calls)
     fft          :      0.01s CPU      0.01s WALL (      67 calls)
     fftw         :      3.40s CPU      3.56s WALL (   29160 calls)
     davcio       :      0.03s CPU      0.05s WALL (    2320 calls)

     Parallel routines
     fft_scatter  :      1.16s CPU      1.22s WALL (   29227 calls)

     PAW routines
     PAW_pot      :      0.26s CPU      0.26s WALL (       5 calls)
     PAW_ddot     :      0.02s CPU      0.02s WALL (      12 calls)
     PAW_symme    :      0.00s CPU      0.00s WALL (      10 calls)

     PWSCF        :     7.15s CPU         7.47s WALL


   This run was terminated on:   2:12: 7  12Jul2015            

=------------------------------------------------------------------------------=
   JOB DONE.
=------------------------------------------------------------------------------=
