
     Program PWSCF v.5.0.2 (svn rev. 9656) starts on 12Jul2015 at  2:26:58 

     This program is part of the open-source Quantum ESPRESSO suite
     for quantum simulation of materials; please cite
         "P. Giannozzi et al., J. Phys.:Condens. Matter 21 395502 (2009);
          URL http://www.quantum-espresso.org", 
     in publications or presentations arising from this work. More details at
     http://www.quantum-espresso.org/quote.php

     Parallel version (MPI), running on     4 processors
     R & G space division:  proc/nbgrp/npool/nimage =       4

     Current dimensions of program PWSCF are:
     Max number of different atomic species (ntypx) = 10
     Max number of k-points (npk) =  40000
     Max angular momentum in pseudopotentials (lmaxx) =  3
     Waiting for input...
     Reading input from standard input
               file Al.pbe-n-kjpaw_psl.0.1.UPF: wavefunction(s)  3S renormalized

     Subspace diagonalization in iterative solution of the eigenvalue problem:
     a serial algorithm will be used


     Parallelization info
     --------------------
     sticks:   dense  smooth     PW     G-vecs:    dense   smooth      PW
     Min         189     189     58                 3462     3462     569
     Max         190     190     59                 3464     3464     570
     Sum         757     757    235                13851    13851    2277



     bravais-lattice index     =            2
     lattice parameter (alat)  =       7.6300  a.u.
     unit-cell volume          =     111.0487 (a.u.)^3
     number of atoms/cell      =            1
     number of atomic types    =            1
     number of electrons       =         3.00
     number of Kohn-Sham states=            6
     kinetic-energy cutoff     =      95.0000  Ry
     charge density cutoff     =     380.0000  Ry
     convergence threshold     =      1.0E-07
     mixing beta               =       0.7000
     number of iterations used =            8  plain     mixing
     Exchange-correlation      =  SLA  PW   PBX  PBC ( 1 4 3 4 0)
     EXX-fraction              =        0.00

     celldm(1)=   7.630000  celldm(2)=   0.000000  celldm(3)=   0.000000
     celldm(4)=   0.000000  celldm(5)=   0.000000  celldm(6)=   0.000000

     crystal axes: (cart. coord. in units of alat)
               a(1) = (  -0.500000   0.000000   0.500000 )  
               a(2) = (   0.000000   0.500000   0.500000 )  
               a(3) = (  -0.500000   0.500000   0.000000 )  

     reciprocal axes: (cart. coord. in units 2 pi/alat)
               b(1) = ( -1.000000 -1.000000  1.000000 )  
               b(2) = (  1.000000  1.000000  1.000000 )  
               b(3) = ( -1.000000  1.000000 -1.000000 )  


     PseudoPot. # 1 for Al read from file:
     ./Al.pbe-n-kjpaw_psl.0.1.UPF
     MD5 check sum: 023d9faf819c76fc4df1f064efe7b7b2
     Pseudo is Projector augmented-wave + core cor, Zval =  3.0
     Generated using "atomic" code by A. Dal Corso  v.5.0.2 svn rev. 9415
     Shape of augmentation charge: PSQ
     Using radial grid of 1135 points,  4 beta functions with: 
                l(1) =   0
                l(2) =   0
                l(3) =   1
                l(4) =   1
     Q(r) pseudized with 0 coefficients 


     atomic species   valence    mass     pseudopotential
        Al             3.00    26.98154     Al( 1.00)

     48 Sym. Ops., with inversion, found



   Cartesian axes

     site n.     atom                  positions (alat units)
         1           Al  tau(   1) = (   0.0000000   0.0000000   0.0000000  )

     number of k points=    20  gaussian smearing, width (Ry)=  0.0030
                       cart. coord. in units 2pi/alat
        k(    1) = (   0.0000000   0.0000000   0.0000000), wk =   0.0058309
        k(    2) = (  -0.1428571   0.1428571  -0.1428571), wk =   0.0466472
        k(    3) = (  -0.2857143   0.2857143  -0.2857143), wk =   0.0466472
        k(    4) = (  -0.4285714   0.4285714  -0.4285714), wk =   0.0466472
        k(    5) = (   0.0000000   0.2857143   0.0000000), wk =   0.0349854
        k(    6) = (  -0.1428571   0.4285714  -0.1428571), wk =   0.1399417
        k(    7) = (  -0.2857143   0.5714286  -0.2857143), wk =   0.1399417
        k(    8) = (   0.5714286  -0.2857143   0.5714286), wk =   0.1399417
        k(    9) = (   0.4285714  -0.1428571   0.4285714), wk =   0.1399417
        k(   10) = (   0.2857143  -0.0000000   0.2857143), wk =   0.0699708
        k(   11) = (   0.0000000   0.5714286   0.0000000), wk =   0.0349854
        k(   12) = (  -0.1428571   0.7142857  -0.1428571), wk =   0.1399417
        k(   13) = (   0.7142857  -0.1428571   0.7142857), wk =   0.1399417
        k(   14) = (   0.5714286   0.0000000   0.5714286), wk =   0.0699708
        k(   15) = (   0.0000000   0.8571429   0.0000000), wk =   0.0349854
        k(   16) = (   0.8571429  -0.0000000   0.8571429), wk =   0.0699708
        k(   17) = (  -0.2857143   0.5714286   0.0000000), wk =   0.1399417
        k(   18) = (   0.5714286  -0.2857143   0.8571429), wk =   0.2798834
        k(   19) = (   0.7142857  -0.1428571   1.0000000), wk =   0.1399417
        k(   20) = (   0.5714286   0.0000000   0.8571429), wk =   0.1399417

     Dense  grid:    13851 G-vectors     FFT dimensions: (  36,  36,  36)

     Largest allocated arrays     est. size (Mb)     dimensions
        Kohn-Sham Wavefunctions         0.04 Mb     (    454,    6)
        NL pseudopotentials             0.06 Mb     (    454,    8)
        Each V/rho on FFT grid          0.18 Mb     (  11664)
        Each G-vector array             0.03 Mb     (   3462)
        G-vector shells                 0.00 Mb     (    187)
     Largest temporary arrays     est. size (Mb)     dimensions
        Auxiliary wavefunctions         0.17 Mb     (    454,   24)
        Each subspace H/S matrix        0.01 Mb     (  24,  24)
        Each <psi_i|beta_j> matrix      0.00 Mb     (      8,    6)
        Arrays for rho mixing           1.42 Mb     (  11664,   8)

     Check: negative/imaginary core charge=   -0.000001    0.000000

     Initial potential from superposition of free atoms

     starting charge    2.99771, renormalised to    3.00000
     Starting wfc are    4 randomized atomic wfcs
     Checking if some PAW data can be deallocated... 

     total cpu time spent up to now is        1.6 secs

     per-process dynamical memory:     9.9 Mb

     Self-consistent Calculation

     iteration #  1     ecut=    95.00 Ry     beta=0.70
     Davidson diagonalization with overlap
     ethr =  1.00E-02,  avg # of iterations =  4.8

     Threshold (ethr) on eigenvalues was too large:
     Diagonalizing with lowered threshold

     Davidson diagonalization with overlap
     ethr =  2.05E-04,  avg # of iterations =  2.2

     total cpu time spent up to now is        4.5 secs

     total energy              =     -39.50640195 Ry
     Harris-Foulkes estimate   =     -39.50777664 Ry
     estimated scf accuracy    <       0.00582593 Ry

     iteration #  2     ecut=    95.00 Ry     beta=0.70
     Davidson diagonalization with overlap
     ethr =  1.94E-04,  avg # of iterations =  1.1

     total cpu time spent up to now is        5.5 secs

     total energy              =     -39.50636274 Ry
     Harris-Foulkes estimate   =     -39.50647011 Ry
     estimated scf accuracy    <       0.00043401 Ry

     iteration #  3     ecut=    95.00 Ry     beta=0.70
     Davidson diagonalization with overlap
     ethr =  1.45E-05,  avg # of iterations =  1.6

     total cpu time spent up to now is        6.6 secs

     total energy              =     -39.50638483 Ry
     Harris-Foulkes estimate   =     -39.50638544 Ry
     estimated scf accuracy    <       0.00000152 Ry

     iteration #  4     ecut=    95.00 Ry     beta=0.70
     Davidson diagonalization with overlap
     ethr =  5.07E-08,  avg # of iterations =  3.2

     total cpu time spent up to now is        8.0 secs

     total energy              =     -39.50638608 Ry
     Harris-Foulkes estimate   =     -39.50638615 Ry
     estimated scf accuracy    <       0.00000015 Ry

     iteration #  5     ecut=    95.00 Ry     beta=0.70
     Davidson diagonalization with overlap
     ethr =  5.15E-09,  avg # of iterations =  1.1

     total cpu time spent up to now is        9.0 secs

     End of self-consistent calculation

          k = 0.0000 0.0000 0.0000 (  1807 PWs)   bands (ev):

    -3.2236  20.5718  20.5718  22.0484  22.0485  22.0485

          k =-0.1429 0.1429-0.1429 (  1747 PWs)   bands (ev):

    -2.6687  15.5391  19.4756  19.4756  22.6124  23.8483

          k =-0.2857 0.2857-0.2857 (  1742 PWs)   bands (ev):

    -1.0165  10.0810  18.7573  18.7573  22.0788  22.0788

          k =-0.4286 0.4286-0.4286 (  1742 PWs)   bands (ev):

     1.6958   5.4252  18.9407  18.9407  20.0569  20.0569

          k = 0.0000 0.2857 0.0000 (  1748 PWs)   bands (ev):

    -2.4841  17.4621  17.4621  17.6683  20.6237  21.6563

          k =-0.1429 0.4286-0.1429 (  1741 PWs)   bands (ev):

    -1.1992  12.2238  16.3750  17.9069  18.3328  22.2113

          k =-0.2857 0.5714-0.2857 (  1738 PWs)   bands (ev):

     1.1568   7.3302  15.8094  16.2301  17.9736  24.0065

          k = 0.5714-0.2857 0.5714 (  1734 PWs)   bands (ev):

     3.2912   4.5496  14.3228  17.0307  18.8724  22.6170

          k = 0.4286-0.1429 0.4286 (  1738 PWs)   bands (ev):

     0.2556   8.8514  13.8521  18.7724  20.7297  22.1193

          k = 0.2857-0.0000 0.2857 (  1741 PWs)   bands (ev):

    -1.7484  13.5210  14.8590  21.3543  22.0084  23.3725

          k = 0.0000 0.5714 0.0000 (  1728 PWs)   bands (ev):

    -0.2888  14.4940  14.8359  14.9532  14.9532  18.4736

          k =-0.1429 0.7143-0.1429 (  1736 PWs)   bands (ev):

     1.6909  10.1625  11.6538  14.4844  15.9713  20.4942

          k = 0.7143-0.1429 0.7143 (  1734 PWs)   bands (ev):

     4.6643   5.9417   9.8071  14.9644  16.6762  25.0570

          k = 0.5714 0.0000 0.5714 (  1742 PWs)   bands (ev):

     2.5868   8.0644   9.5740  16.3950  18.2866  26.6205

          k = 0.0000 0.8571 0.0000 (  1728 PWs)   bands (ev):

     3.2679   8.3863  13.3814  13.6949  13.6949  17.1851

          k = 0.8571-0.0000 0.8571 (  1722 PWs)   bands (ev):

     5.3410   6.6848   9.5212  13.8546  15.2684  19.8785

          k =-0.2857 0.5714 0.0000 (  1740 PWs)   bands (ev):

     0.4357  10.7955  12.2512  15.2068  20.3135  22.0527

          k = 0.5714-0.2857 0.8571 (  1737 PWs)   bands (ev):

     3.1152   6.7775  11.8040  13.0728  21.2258  22.4981

          k = 0.7143-0.1429 1.0000 (  1730 PWs)   bands (ev):

     3.9717   9.0406   9.4298  11.0116  19.0055  20.9710

          k = 0.5714 0.0000 0.8571 (  1734 PWs)   bands (ev):

     6.0513   6.7014   8.1589  11.2301  20.6415  25.0690

     the Fermi energy is     8.0733 ev

!    total energy              =     -39.50638608 Ry
     Harris-Foulkes estimate   =     -39.50638609 Ry
     estimated scf accuracy    <       0.00000003 Ry

     total all-electron energy =      -485.649168 Ry

     The total energy is the sum of the following terms:

     one-electron contribution =       3.16451611 Ry
     hartree contribution      =       0.00632412 Ry
     xc contribution           =      -3.03180602 Ry
     ewald contribution        =      -5.40809419 Ry
     one-center paw contrib.   =     -34.23726821 Ry
     smearing contrib. (-TS)   =      -0.00005789 Ry

     convergence has been achieved in   5 iterations

     Writing output data file Al.save

     init_run     :      0.68s CPU      1.02s WALL (       1 calls)
     electrons    :      4.09s CPU      7.45s WALL (       1 calls)

     Called by init_run:
     wfcinit      :      0.19s CPU      0.33s WALL (       1 calls)
     potinit      :      0.09s CPU      0.16s WALL (       1 calls)

     Called by electrons:
     c_bands      :      2.93s CPU      5.39s WALL (       6 calls)
     sum_band     :      0.62s CPU      1.17s WALL (       6 calls)
     v_of_rho     :      0.15s CPU      0.22s WALL (       6 calls)
     newd         :      0.05s CPU      0.06s WALL (       6 calls)
     mix_rho      :      0.05s CPU      0.10s WALL (       6 calls)

     Called by c_bands:
     init_us_2    :      0.09s CPU      0.11s WALL (     260 calls)
     cegterg      :      2.84s CPU      5.30s WALL (     120 calls)

     Called by *egterg:
     h_psi        :      2.67s CPU      4.94s WALL (     423 calls)
     s_psi        :      0.02s CPU      0.02s WALL (     423 calls)
     g_psi        :      0.01s CPU      0.02s WALL (     283 calls)
     cdiaghg      :      0.10s CPU      0.17s WALL (     383 calls)

     Called by h_psi:
     add_vuspsi   :      0.02s CPU      0.03s WALL (     423 calls)

     General routines
     calbec       :      0.07s CPU      0.17s WALL (     543 calls)
     fft          :      0.08s CPU      0.17s WALL (      80 calls)
     fftw         :      2.86s CPU      5.39s WALL (    4644 calls)
     davcio       :      0.01s CPU      0.02s WALL (     380 calls)

     Parallel routines
     fft_scatter  :      0.87s CPU      3.13s WALL (    4724 calls)

     PAW routines
     PAW_pot      :      0.34s CPU      0.60s WALL (       6 calls)
     PAW_ddot     :      0.04s CPU      0.09s WALL (      22 calls)
     PAW_symme    :      0.00s CPU      0.00s WALL (      12 calls)

     PWSCF        :     5.42s CPU         9.32s WALL


   This run was terminated on:   2:27: 8  12Jul2015            

=------------------------------------------------------------------------------=
   JOB DONE.
=------------------------------------------------------------------------------=
