
     Program PWSCF v.5.0.2 (svn rev. 9656) starts on 26Jul2015 at  3:43:24 

     This program is part of the open-source Quantum ESPRESSO suite
     for quantum simulation of materials; please cite
         "P. Giannozzi et al., J. Phys.:Condens. Matter 21 395502 (2009);
          URL http://www.quantum-espresso.org", 
     in publications or presentations arising from this work. More details at
     http://www.quantum-espresso.org/quote.php

     Parallel version (MPI), running on     4 processors
     R & G space division:  proc/nbgrp/npool/nimage =       4

     Current dimensions of program PWSCF are:
     Max number of different atomic species (ntypx) = 10
     Max number of k-points (npk) =  40000
     Max angular momentum in pseudopotentials (lmaxx) =  3
     Waiting for input...
     Reading input from standard input
               file C.pbe-rrkjus.UPF: wavefunction(s)  2S 2P renormalized

     Subspace diagonalization in iterative solution of the eigenvalue problem:
     a serial algorithm will be used


     Parallelization info
     --------------------
     sticks:   dense  smooth     PW     G-vecs:    dense   smooth      PW
     Min         211     142     40                58589    32653    5382
     Max         212     143     41                58614    32695    5435
     Sum         847     571    163               234415   130709   21665



     bravais-lattice index     =            0
     lattice parameter (alat)  =       4.6500  a.u.
     unit-cell volume          =    1044.8904 (a.u.)^3
     number of atoms/cell      =            2
     number of atomic types    =            1
     number of electrons       =         8.00
     number of Kohn-Sham states=            8
     kinetic-energy cutoff     =      95.0000  Ry
     charge density cutoff     =     560.0000  Ry
     convergence threshold     =      1.0E-08
     mixing beta               =       0.7000
     number of iterations used =            8  plain     mixing
     Exchange-correlation      =  SLA  PW   PBE  PBE ( 1 4 3 4 0)
     EXX-fraction              =        0.00

     celldm(1)=   4.650000  celldm(2)=   0.000000  celldm(3)=   0.000000
     celldm(4)=   0.000000  celldm(5)=   0.000000  celldm(6)=   0.000000

     crystal axes: (cart. coord. in units of alat)
               a(1) = (   1.000000   0.000000   0.000000 )  
               a(2) = (   0.500000   0.866025   0.000000 )  
               a(3) = (   0.000000   0.000000  12.000000 )  

     reciprocal axes: (cart. coord. in units 2 pi/alat)
               b(1) = (  1.000000 -0.577350  0.000000 )  
               b(2) = (  0.000000  1.154701  0.000000 )  
               b(3) = (  0.000000  0.000000  0.083333 )  


     PseudoPot. # 1 for C  read from file:
     ./C.pbe-rrkjus.UPF
     MD5 check sum: 00fb224312de0c5b6853bd333518df6f
     Pseudo is Ultrasoft, Zval =  4.0
     Generated by new atomic code, or converted to UPF format
     Using radial grid of  627 points,  4 beta functions with: 
                l(1) =   0
                l(2) =   0
                l(3) =   1
                l(4) =   1
     Q(r) pseudized with 0 coefficients 


     atomic species   valence    mass     pseudopotential
        C              4.00    12.00000     C ( 1.00)

     24 Sym. Ops., with inversion, found (12 have fractional translation)



   Cartesian axes

     site n.     atom                  positions (alat units)
         1           C   tau(   1) = (   0.0000000   0.0000000   0.0000000  )
         2           C   tau(   2) = (   1.0000000   0.5773503   0.0000000  )

     number of k points=    24  gaussian smearing, width (Ry)=  0.0010
                       cart. coord. in units 2pi/alat
        k(    1) = (   0.0000000   0.0000000   0.0000000), wk =   0.0102041
        k(    2) = (   0.0000000   0.0824786   0.0000000), wk =   0.0612245
        k(    3) = (   0.0000000   0.1649572   0.0000000), wk =   0.0612245
        k(    4) = (   0.0000000   0.2474358   0.0000000), wk =   0.0612245
        k(    5) = (   0.0000000   0.3299144   0.0000000), wk =   0.0612245
        k(    6) = (   0.0000000   0.4123931   0.0000000), wk =   0.0612245
        k(    7) = (   0.0000000   0.4948717   0.0000000), wk =   0.0612245
        k(    8) = (   0.0000000  -0.5773503   0.0000000), wk =   0.0306122
        k(    9) = (   0.0714286   0.1237179   0.0000000), wk =   0.0612245
        k(   10) = (   0.0714286   0.2061965   0.0000000), wk =   0.1224490
        k(   11) = (   0.0714286   0.2886751   0.0000000), wk =   0.1224490
        k(   12) = (   0.0714286   0.3711537   0.0000000), wk =   0.1224490
        k(   13) = (   0.0714286   0.4536324   0.0000000), wk =   0.1224490
        k(   14) = (   0.0714286  -0.6185896   0.0000000), wk =   0.1224490
        k(   15) = (   0.1428571   0.2474358   0.0000000), wk =   0.0612245
        k(   16) = (   0.1428571   0.3299144   0.0000000), wk =   0.1224490
        k(   17) = (   0.1428571   0.4123931   0.0000000), wk =   0.1224490
        k(   18) = (   0.1428571  -0.6598289   0.0000000), wk =   0.1224490
        k(   19) = (   0.1428571  -0.5773503   0.0000000), wk =   0.0612245
        k(   20) = (   0.2142857   0.3711537   0.0000000), wk =   0.0612245
        k(   21) = (   0.2142857  -0.7010682   0.0000000), wk =   0.1224490
        k(   22) = (   0.2142857  -0.6185896   0.0000000), wk =   0.1224490
        k(   23) = (   0.2857143  -0.6598289   0.0000000), wk =   0.0612245
        k(   24) = (   0.2857143  -0.5773503   0.0000000), wk =   0.0612245

     Dense  grid:   234415 G-vectors     FFT dimensions: (  36,  36, 432)

     Smooth grid:   130709 G-vectors     FFT dimensions: (  30,  30, 360)

     Largest allocated arrays     est. size (Mb)     dimensions
        Kohn-Sham Wavefunctions         0.52 Mb     (   4235,    8)
        NL pseudopotentials             1.03 Mb     (   4235,   16)
        Each V/rho on FFT grid          2.14 Mb     ( 139968)
        Each G-vector array             0.45 Mb     (  58604)
        G-vector shells                 0.14 Mb     (  17736)
     Largest temporary arrays     est. size (Mb)     dimensions
        Auxiliary wavefunctions         2.07 Mb     (   4235,   32)
        Each subspace H/S matrix        0.02 Mb     (  32,  32)
        Each <psi_i|beta_j> matrix      0.00 Mb     (     16,    8)
        Arrays for rho mixing          17.09 Mb     ( 139968,   8)

     Initial potential from superposition of free atoms

     starting charge    7.99989, renormalised to    8.00000

     negative rho (up, down):  0.254E-04 0.000E+00
     Starting wfc are    8 randomized atomic wfcs

     total cpu time spent up to now is        6.6 secs

     per-process dynamical memory:    37.5 Mb

     Self-consistent Calculation

     iteration #  1     ecut=    95.00 Ry     beta=0.70
     Davidson diagonalization with overlap
     ethr =  1.00E-02,  avg # of iterations =  5.5

     negative rho (up, down):  0.175E-04 0.000E+00

     total cpu time spent up to now is       28.3 secs

     total energy              =     -22.75972689 Ry
     Harris-Foulkes estimate   =     -22.88421003 Ry
     estimated scf accuracy    <       0.20659284 Ry

     iteration #  2     ecut=    95.00 Ry     beta=0.70
     Davidson diagonalization with overlap
     ethr =  2.58E-03,  avg # of iterations =  3.3

     negative rho (up, down):  0.170E-04 0.000E+00

     total cpu time spent up to now is       44.3 secs

     total energy              =     -22.79087115 Ry
     Harris-Foulkes estimate   =     -22.79100497 Ry
     estimated scf accuracy    <       0.00251156 Ry

     iteration #  3     ecut=    95.00 Ry     beta=0.70
     Davidson diagonalization with overlap
     ethr =  3.14E-05,  avg # of iterations = 11.3

     negative rho (up, down):  0.186E-04 0.000E+00

     total cpu time spent up to now is       73.2 secs

     total energy              =     -22.79122662 Ry
     Harris-Foulkes estimate   =     -22.79119616 Ry
     estimated scf accuracy    <       0.00013766 Ry

     iteration #  4     ecut=    95.00 Ry     beta=0.70
     Davidson diagonalization with overlap
     ethr =  1.72E-06,  avg # of iterations =  4.0

     negative rho (up, down):  0.187E-04 0.000E+00

     total cpu time spent up to now is       89.5 secs

     total energy              =     -22.79123217 Ry
     Harris-Foulkes estimate   =     -22.79123133 Ry
     estimated scf accuracy    <       0.00000091 Ry

     iteration #  5     ecut=    95.00 Ry     beta=0.70
     Davidson diagonalization with overlap
     ethr =  1.14E-08,  avg # of iterations =  2.5

     negative rho (up, down):  0.187E-04 0.000E+00

     total cpu time spent up to now is      105.2 secs

     total energy              =     -22.79123250 Ry
     Harris-Foulkes estimate   =     -22.79123249 Ry
     estimated scf accuracy    <       0.00000003 Ry

     iteration #  6     ecut=    95.00 Ry     beta=0.70
     Davidson diagonalization with overlap
     ethr =  3.21E-10,  avg # of iterations =  2.0

     negative rho (up, down):  0.186E-04 0.000E+00

     total cpu time spent up to now is      119.9 secs

     End of self-consistent calculation

          k = 0.0000 0.0000 0.0000 ( 16331 PWs)   bands (ev):

   -22.4915 -10.6018  -6.0250  -6.0250   0.3036   1.0417   1.2090   1.5613

          k = 0.0000 0.0825 0.0000 ( 16357 PWs)   bands (ev):

   -22.3708 -10.4572  -6.5071  -6.2788   0.4678   1.2087   1.3779   1.7293

          k = 0.0000 0.1650 0.0000 ( 16379 PWs)   bands (ev):

   -22.0096 -10.0261  -7.7707  -6.9084   0.9607   1.7093   1.8845   2.2331

          k = 0.0000 0.2474 0.0000 ( 16311 PWs)   bands (ev):

   -21.4109  -9.4728  -9.3182  -7.6702   1.7812   2.5403   2.7288   3.0712

          k = 0.0000 0.3299 0.0000 ( 16310 PWs)   bands (ev):

   -20.5806 -11.3450  -8.3819  -8.3551   2.9259   3.2623   3.7637   3.9106

          k = 0.0000 0.4124 0.0000 ( 16368 PWs)   bands (ev):

   -19.5295 -13.2206  -8.9403  -7.1884   1.3270   4.3610   4.7807   5.2145

          k = 0.0000 0.4949 0.0000 ( 16368 PWs)   bands (ev):

   -18.2868 -14.9855  -9.2921  -5.9773  -0.4215   4.5579   6.1957   7.0211

          k = 0.0000-0.5774 0.0000 ( 16340 PWs)   bands (ev):

   -17.2297 -16.2210  -9.4118  -5.3191  -1.2671   4.5015   8.1870   8.3399

          k = 0.0714 0.1237 0.0000 ( 16355 PWs)   bands (ev):

   -22.1299 -10.1693  -7.3145  -6.7868   0.7965   1.5426   1.7156   2.0653

          k = 0.0714 0.2062 0.0000 ( 16333 PWs)   bands (ev):

   -21.6499  -9.5994  -8.6899  -7.5920   1.4536   2.2090   2.3911   2.7366

          k = 0.0714 0.2887 0.0000 ( 16281 PWs)   bands (ev):

   -20.9354 -10.4124  -8.7619  -8.3951   2.4374   3.1973   3.4042   3.7344

          k = 0.0714 0.3712 0.0000 ( 16321 PWs)   bands (ev):

   -19.9944 -12.2550  -9.0619  -7.6892   2.2277   3.7422   4.5469   4.7547

          k = 0.0714 0.4536 0.0000 ( 16333 PWs)   bands (ev):

   -18.8437 -14.0644  -9.5310  -6.4664   0.3570   5.1172   5.4320   6.1899

          k = 0.0714-0.6186 0.0000 ( 16370 PWs)   bands (ev):

   -17.5583 -15.6943  -9.7719  -5.4008  -1.0582   5.0472   7.3088   8.1226

          k = 0.1429 0.2474 0.0000 ( 16317 PWs)   bands (ev):

   -21.0542  -9.8598  -8.8987  -8.6668   2.2746   3.0395   3.2355   3.5749

          k = 0.1429 0.3299 0.0000 ( 16261 PWs)   bands (ev):

   -20.2288 -11.3524  -9.6269  -7.9448   2.8296   3.4202   4.1990   4.4175

          k = 0.1429 0.4124 0.0000 ( 16318 PWs)   bands (ev):

   -19.1861 -13.0467 -10.2890  -6.7857   1.0530   4.8828   5.6704   5.9368

          k = 0.1429-0.6598 0.0000 ( 16341 PWs)   bands (ev):

   -17.9577 -14.7253 -10.6780  -5.5656  -0.5822   6.4548   6.7122   7.4075

          k = 0.1429-0.5774 0.0000 ( 16346 PWs)   bands (ev):

   -16.9204 -15.9208 -10.8070  -4.8779  -1.4163   6.4402   8.6032   8.7892

          k = 0.2143 0.3712 0.0000 ( 16293 PWs)   bands (ev):

   -19.3013 -12.3820 -10.8984  -6.8959   1.3486   4.7229   5.4895   5.7682

          k = 0.2143-0.7011 0.0000 ( 16349 PWs)   bands (ev):

   -18.1737 -13.7230 -11.7109  -5.6832  -0.1827   6.3304   7.0065   7.4564

          k = 0.2143-0.6186 0.0000 ( 16385 PWs)   bands (ev):

   -16.9260 -15.1684 -12.0547  -4.5565  -1.4816   8.1528   8.1583   8.3923

          k = 0.2857-0.6598 0.0000 ( 16373 PWs)   bands (ev):

   -16.9989 -14.4692 -12.8681  -4.4610  -1.4501   7.8171   8.0384   9.3118

          k = 0.2857-0.5774 0.0000 ( 16385 PWs)   bands (ev):

   -15.9957 -15.3315 -13.2632  -3.5698  -2.3502   7.7878   9.6494   9.7592

     the Fermi energy is    -3.3376 ev

!    total energy              =     -22.79123250 Ry
     Harris-Foulkes estimate   =     -22.79123250 Ry
     estimated scf accuracy    <          6.3E-10 Ry

     The total energy is the sum of the following terms:

     one-electron contribution =    -353.76104061 Ry
     hartree contribution      =     177.89012458 Ry
     xc contribution           =      -7.02455790 Ry
     ewald contribution        =     160.10424143 Ry
     smearing contrib. (-TS)   =      -0.00000000 Ry

     convergence has been achieved in   6 iterations

     Writing output data file graphene.save

     init_run     :      6.25s CPU      6.50s WALL (       1 calls)
     electrons    :    107.95s CPU    113.29s WALL (       1 calls)

     Called by init_run:
     wfcinit      :      3.83s CPU      3.99s WALL (       1 calls)
     potinit      :      1.10s CPU      1.13s WALL (       1 calls)

     Called by electrons:
     c_bands      :     84.38s CPU     88.01s WALL (       6 calls)
     sum_band     :     17.49s CPU     18.67s WALL (       6 calls)
     v_of_rho     :      2.61s CPU      2.85s WALL (       7 calls)
     newd         :      2.96s CPU      3.11s WALL (       7 calls)
     mix_rho      :      0.43s CPU      0.48s WALL (       6 calls)

     Called by c_bands:
     init_us_2    :      0.98s CPU      1.25s WALL (     312 calls)
     cegterg      :     82.87s CPU     86.18s WALL (     144 calls)

     Called by *egterg:
     h_psi        :     78.28s CPU     81.49s WALL (     854 calls)
     s_psi        :      1.07s CPU      1.09s WALL (     854 calls)
     g_psi        :      0.40s CPU      0.41s WALL (     686 calls)
     cdiaghg      :      0.40s CPU      0.40s WALL (     830 calls)

     Called by h_psi:
     add_vuspsi   :      1.04s CPU      1.08s WALL (     854 calls)

     General routines
     calbec       :      1.45s CPU      1.52s WALL (     998 calls)
     fft          :      2.40s CPU      2.62s WALL (     107 calls)
     ffts         :      0.17s CPU      0.19s WALL (      13 calls)
     fftw         :     71.82s CPU     75.25s WALL (    8738 calls)
     interpolate  :      0.53s CPU      0.58s WALL (      13 calls)
     davcio       :      0.29s CPU      0.42s WALL (     456 calls)

     Parallel routines
     fft_scatter  :     26.37s CPU     29.15s WALL (    8858 calls)

     PWSCF        :  1m54.55s CPU     2m 0.16s WALL


   This run was terminated on:   3:45:24  26Jul2015            

=------------------------------------------------------------------------------=
   JOB DONE.
=------------------------------------------------------------------------------=
