
     Program PWSCF v.5.0.2 (svn rev. 9656) starts on 12Jul2015 at  1:33:39 

     This program is part of the open-source Quantum ESPRESSO suite
     for quantum simulation of materials; please cite
         "P. Giannozzi et al., J. Phys.:Condens. Matter 21 395502 (2009);
          URL http://www.quantum-espresso.org", 
     in publications or presentations arising from this work. More details at
     http://www.quantum-espresso.org/quote.php

     Parallel version (MPI), running on     4 processors
     R & G space division:  proc/nbgrp/npool/nimage =       4

     Current dimensions of program PWSCF are:
     Max number of different atomic species (ntypx) = 10
     Max number of k-points (npk) =  40000
     Max angular momentum in pseudopotentials (lmaxx) =  3
     Waiting for input...
     Reading input from standard input
               file Al.pbe-n-kjpaw_psl.0.1.UPF: wavefunction(s)  3S renormalized

     Subspace diagonalization in iterative solution of the eigenvalue problem:
     a serial algorithm will be used


     Parallelization info
     --------------------
     sticks:   dense  smooth     PW     G-vecs:    dense   smooth      PW
     Min         127     127     40                 1947     1947     351
     Max         128     128     41                 1951     1951     354
     Sum         511     511    163                 7799     7799    1411



     bravais-lattice index     =            2
     lattice parameter (alat)  =       7.9000  a.u.
     unit-cell volume          =     123.2598 (a.u.)^3
     number of atoms/cell      =            1
     number of atomic types    =            1
     number of electrons       =         3.00
     number of Kohn-Sham states=            6
     kinetic-energy cutoff     =      60.0000  Ry
     charge density cutoff     =     240.0000  Ry
     convergence threshold     =      1.0E-07
     mixing beta               =       0.7000
     number of iterations used =            8  plain     mixing
     Exchange-correlation      =  SLA  PW   PBX  PBC ( 1 4 3 4 0)
     EXX-fraction              =        0.00

     celldm(1)=   7.900000  celldm(2)=   0.000000  celldm(3)=   0.000000
     celldm(4)=   0.000000  celldm(5)=   0.000000  celldm(6)=   0.000000

     crystal axes: (cart. coord. in units of alat)
               a(1) = (  -0.500000   0.000000   0.500000 )  
               a(2) = (   0.000000   0.500000   0.500000 )  
               a(3) = (  -0.500000   0.500000   0.000000 )  

     reciprocal axes: (cart. coord. in units 2 pi/alat)
               b(1) = ( -1.000000 -1.000000  1.000000 )  
               b(2) = (  1.000000  1.000000  1.000000 )  
               b(3) = ( -1.000000  1.000000 -1.000000 )  


     PseudoPot. # 1 for Al read from file:
     ./Al.pbe-n-kjpaw_psl.0.1.UPF
     MD5 check sum: 023d9faf819c76fc4df1f064efe7b7b2
     Pseudo is Projector augmented-wave + core cor, Zval =  3.0
     Generated using "atomic" code by A. Dal Corso  v.5.0.2 svn rev. 9415
     Shape of augmentation charge: PSQ
     Using radial grid of 1135 points,  4 beta functions with: 
                l(1) =   0
                l(2) =   0
                l(3) =   1
                l(4) =   1
     Q(r) pseudized with 0 coefficients 


     atomic species   valence    mass     pseudopotential
        Al             3.00    26.98154     Al( 1.00)

     48 Sym. Ops., with inversion, found



   Cartesian axes

     site n.     atom                  positions (alat units)
         1           Al  tau(   1) = (   0.0000000   0.0000000   0.0000000  )

     number of k points=    84  gaussian smearing, width (Ry)=  0.0030
                       cart. coord. in units 2pi/alat
        k(    1) = (   0.0000000   0.0000000   0.0000000), wk =   0.0009103
        k(    2) = (  -0.0769231   0.0769231  -0.0769231), wk =   0.0072827
        k(    3) = (  -0.1538462   0.1538462  -0.1538462), wk =   0.0072827
        k(    4) = (  -0.2307692   0.2307692  -0.2307692), wk =   0.0072827
        k(    5) = (  -0.3076923   0.3076923  -0.3076923), wk =   0.0072827
        k(    6) = (  -0.3846154   0.3846154  -0.3846154), wk =   0.0072827
        k(    7) = (  -0.4615385   0.4615385  -0.4615385), wk =   0.0072827
        k(    8) = (   0.0000000   0.1538462   0.0000000), wk =   0.0054620
        k(    9) = (  -0.0769231   0.2307692  -0.0769231), wk =   0.0218480
        k(   10) = (  -0.1538462   0.3076923  -0.1538462), wk =   0.0218480
        k(   11) = (  -0.2307692   0.3846154  -0.2307692), wk =   0.0218480
        k(   12) = (  -0.3076923   0.4615385  -0.3076923), wk =   0.0218480
        k(   13) = (  -0.3846154   0.5384615  -0.3846154), wk =   0.0218480
        k(   14) = (   0.5384615  -0.3846154   0.5384615), wk =   0.0218480
        k(   15) = (   0.4615385  -0.3076923   0.4615385), wk =   0.0218480
        k(   16) = (   0.3846154  -0.2307692   0.3846154), wk =   0.0218480
        k(   17) = (   0.3076923  -0.1538462   0.3076923), wk =   0.0218480
        k(   18) = (   0.2307692  -0.0769231   0.2307692), wk =   0.0218480
        k(   19) = (   0.1538462   0.0000000   0.1538462), wk =   0.0109240
        k(   20) = (   0.0000000   0.3076923   0.0000000), wk =   0.0054620
        k(   21) = (  -0.0769231   0.3846154  -0.0769231), wk =   0.0218480
        k(   22) = (  -0.1538462   0.4615385  -0.1538462), wk =   0.0218480
        k(   23) = (  -0.2307692   0.5384615  -0.2307692), wk =   0.0218480
        k(   24) = (  -0.3076923   0.6153846  -0.3076923), wk =   0.0218480
        k(   25) = (   0.6153846  -0.3076923   0.6153846), wk =   0.0218480
        k(   26) = (   0.5384615  -0.2307692   0.5384615), wk =   0.0218480
        k(   27) = (   0.4615385  -0.1538462   0.4615385), wk =   0.0218480
        k(   28) = (   0.3846154  -0.0769231   0.3846154), wk =   0.0218480
        k(   29) = (   0.3076923   0.0000000   0.3076923), wk =   0.0109240
        k(   30) = (   0.0000000   0.4615385   0.0000000), wk =   0.0054620
        k(   31) = (  -0.0769231   0.5384615  -0.0769231), wk =   0.0218480
        k(   32) = (  -0.1538462   0.6153846  -0.1538462), wk =   0.0218480
        k(   33) = (  -0.2307692   0.6923077  -0.2307692), wk =   0.0218480
        k(   34) = (   0.6923077  -0.2307692   0.6923077), wk =   0.0218480
        k(   35) = (   0.6153846  -0.1538462   0.6153846), wk =   0.0218480
        k(   36) = (   0.5384615  -0.0769231   0.5384615), wk =   0.0218480
        k(   37) = (   0.4615385   0.0000000   0.4615385), wk =   0.0109240
        k(   38) = (   0.0000000   0.6153846   0.0000000), wk =   0.0054620
        k(   39) = (  -0.0769231   0.6923077  -0.0769231), wk =   0.0218480
        k(   40) = (  -0.1538462   0.7692308  -0.1538462), wk =   0.0218480
        k(   41) = (   0.7692308  -0.1538462   0.7692308), wk =   0.0218480
        k(   42) = (   0.6923077  -0.0769231   0.6923077), wk =   0.0218480
        k(   43) = (   0.6153846   0.0000000   0.6153846), wk =   0.0109240
        k(   44) = (   0.0000000   0.7692308   0.0000000), wk =   0.0054620
        k(   45) = (  -0.0769231   0.8461538  -0.0769231), wk =   0.0218480
        k(   46) = (   0.8461538  -0.0769231   0.8461538), wk =   0.0218480
        k(   47) = (   0.7692308   0.0000000   0.7692308), wk =   0.0109240
        k(   48) = (   0.0000000   0.9230769   0.0000000), wk =   0.0054620
        k(   49) = (   0.9230769   0.0000000   0.9230769), wk =   0.0109240
        k(   50) = (  -0.1538462   0.3076923   0.0000000), wk =   0.0218480
        k(   51) = (  -0.2307692   0.3846154  -0.0769231), wk =   0.0436959
        k(   52) = (  -0.3076923   0.4615385  -0.1538462), wk =   0.0436959
        k(   53) = (  -0.3846154   0.5384615  -0.2307692), wk =   0.0436959
        k(   54) = (   0.5384615  -0.3846154   0.6923077), wk =   0.0436959
        k(   55) = (  -0.1538462   0.4615385   0.0000000), wk =   0.0218480
        k(   56) = (  -0.2307692   0.5384615  -0.0769231), wk =   0.0436959
        k(   57) = (  -0.3076923   0.6153846  -0.1538462), wk =   0.0436959
        k(   58) = (   0.6153846  -0.3076923   0.7692308), wk =   0.0436959
        k(   59) = (   0.5384615  -0.2307692   0.6923077), wk =   0.0436959
        k(   60) = (   0.4615385  -0.1538462   0.6153846), wk =   0.0436959
        k(   61) = (   0.3846154  -0.0769231   0.5384615), wk =   0.0436959
        k(   62) = (   0.3076923   0.0000000   0.4615385), wk =   0.0218480
        k(   63) = (  -0.1538462   0.6153846   0.0000000), wk =   0.0218480
        k(   64) = (  -0.2307692   0.6923077  -0.0769231), wk =   0.0436959
        k(   65) = (   0.6923077  -0.2307692   0.8461538), wk =   0.0436959
        k(   66) = (   0.6153846  -0.1538462   0.7692308), wk =   0.0436959
        k(   67) = (   0.5384615  -0.0769231   0.6923077), wk =   0.0436959
        k(   68) = (   0.4615385   0.0000000   0.6153846), wk =   0.0218480
        k(   69) = (  -0.1538462   0.7692308   0.0000000), wk =   0.0218480
        k(   70) = (   0.7692308  -0.1538462   0.9230769), wk =   0.0436959
        k(   71) = (   0.6923077  -0.0769231   0.8461538), wk =   0.0436959
        k(   72) = (   0.6153846   0.0000000   0.7692308), wk =   0.0218480
        k(   73) = (   0.8461538  -0.0769231   1.0000000), wk =   0.0218480
        k(   74) = (   0.7692308   0.0000000   0.9230769), wk =   0.0218480
        k(   75) = (  -0.3076923   0.6153846   0.0000000), wk =   0.0218480
        k(   76) = (   0.6153846  -0.3076923   0.9230769), wk =   0.0436959
        k(   77) = (   0.5384615  -0.2307692   0.8461538), wk =   0.0436959
        k(   78) = (   0.6923077  -0.2307692   1.0000000), wk =   0.0218480
        k(   79) = (   0.6153846  -0.1538462   0.9230769), wk =   0.0436959
        k(   80) = (   0.5384615  -0.0769231   0.8461538), wk =   0.0436959
        k(   81) = (   0.4615385   0.0000000   0.7692308), wk =   0.0218480
        k(   82) = (   0.6923077  -0.0769231   1.0000000), wk =   0.0218480
        k(   83) = (   0.6153846   0.0000000   0.9230769), wk =   0.0218480
        k(   84) = (   0.5384615  -0.0769231   1.0000000), wk =   0.0218480

     Dense  grid:     7799 G-vectors     FFT dimensions: (  27,  27,  27)

     Largest allocated arrays     est. size (Mb)     dimensions
        Kohn-Sham Wavefunctions         0.02 Mb     (    246,    6)
        NL pseudopotentials             0.03 Mb     (    246,    8)
        Each V/rho on FFT grid          0.08 Mb     (   5103)
        Each G-vector array             0.01 Mb     (   1950)
        G-vector shells                 0.00 Mb     (    128)
     Largest temporary arrays     est. size (Mb)     dimensions
        Auxiliary wavefunctions         0.09 Mb     (    246,   24)
        Each subspace H/S matrix        0.01 Mb     (  24,  24)
        Each <psi_i|beta_j> matrix      0.00 Mb     (      8,    6)
        Arrays for rho mixing           0.62 Mb     (   5103,   8)

     Initial potential from superposition of free atoms

     starting charge    2.99771, renormalised to    3.00000
     Starting wfc are    4 randomized atomic wfcs
     Checking if some PAW data can be deallocated... 

     total cpu time spent up to now is        1.1 secs

     per-process dynamical memory:     9.1 Mb

     Self-consistent Calculation

     iteration #  1     ecut=    60.00 Ry     beta=0.70
     Davidson diagonalization with overlap
     ethr =  1.00E-02,  avg # of iterations =  4.8

     Threshold (ethr) on eigenvalues was too large:
     Diagonalizing with lowered threshold

     Davidson diagonalization with overlap
     ethr =  1.99E-04,  avg # of iterations =  2.2

     total cpu time spent up to now is        3.7 secs

     total energy              =     -39.49975686 Ry
     Harris-Foulkes estimate   =     -39.50121341 Ry
     estimated scf accuracy    <       0.00568685 Ry

     iteration #  2     ecut=    60.00 Ry     beta=0.70
     Davidson diagonalization with overlap
     ethr =  1.90E-04,  avg # of iterations =  1.0

     total cpu time spent up to now is        4.6 secs

     total energy              =     -39.49973973 Ry
     Harris-Foulkes estimate   =     -39.49984225 Ry
     estimated scf accuracy    <       0.00039378 Ry

     iteration #  3     ecut=    60.00 Ry     beta=0.70
     Davidson diagonalization with overlap
     ethr =  1.31E-05,  avg # of iterations =  1.8

     total cpu time spent up to now is        5.6 secs

     total energy              =     -39.49976856 Ry
     Harris-Foulkes estimate   =     -39.49976932 Ry
     estimated scf accuracy    <       0.00000187 Ry

     iteration #  4     ecut=    60.00 Ry     beta=0.70
     Davidson diagonalization with overlap
     ethr =  6.23E-08,  avg # of iterations =  2.9

     total cpu time spent up to now is        6.7 secs

     total energy              =     -39.49977011 Ry
     Harris-Foulkes estimate   =     -39.49977021 Ry
     estimated scf accuracy    <       0.00000022 Ry

     iteration #  5     ecut=    60.00 Ry     beta=0.70
     Davidson diagonalization with overlap
     ethr =  7.25E-09,  avg # of iterations =  1.2

     total cpu time spent up to now is        7.6 secs

     End of self-consistent calculation

          k = 0.0000 0.0000 0.0000 (   941 PWs)   bands (ev):

    -3.5583  18.9685  18.9685  19.6998  19.6998  19.6998

          k =-0.0769 0.0769-0.0769 (   950 PWs)   bands (ev):

    -3.4080  16.5637  18.2991  18.2991  20.5810  20.5868

          k =-0.1538 0.1538-0.1538 (   953 PWs)   bands (ev):

    -2.9579  13.6294  17.6010  17.6010  20.5265  21.6691

          k =-0.2308 0.2308-0.2308 (   953 PWs)   bands (ev):

    -2.2107  10.8067  17.1382  17.1382  20.3363  21.0220

          k =-0.3077 0.3077-0.3077 (   962 PWs)   bands (ev):

    -1.1704   8.1821  16.9246  16.9246  19.8086  19.8086

          k =-0.3846 0.3846-0.3846 (   954 PWs)   bands (ev):

     0.1573   5.7892  16.9554  16.9554  18.7743  18.7744

          k =-0.4615 0.4615-0.4615 (   969 PWs)   bands (ev):

     1.7653   3.6465  17.1800  17.1800  18.0405  18.0405

          k = 0.0000 0.1538 0.0000 (   953 PWs)   bands (ev):

    -3.3579  17.2541  17.2541  17.8029  19.2276  21.6961

          k =-0.0769 0.2308-0.0769 (   949 PWs)   bands (ev):

    -3.0079  14.6787  16.4462  17.7133  19.5724  21.3934

          k =-0.1538 0.3077-0.1538 (   953 PWs)   bands (ev):

    -2.3598  11.8351  15.8916  17.3130  19.3290  21.3645

          k =-0.2308 0.3846-0.2308 (   961 PWs)   bands (ev):

    -1.4174   9.1504  15.5941  17.0328  18.0244  21.7475

          k =-0.3077 0.4615-0.3077 (   970 PWs)   bands (ev):

    -0.1859   6.6831  15.5540  16.6774  17.1948  20.6697

          k =-0.3846 0.5385-0.3846 (   969 PWs)   bands (ev):

     1.3282   4.4584  15.7703  15.8386  17.3511  19.7899

          k = 0.5385-0.3846 0.5385 (   969 PWs)   bands (ev):

     2.4904   3.1181  15.1826  16.2389  17.8472  19.1595

          k = 0.4615-0.3077 0.4615 (   963 PWs)   bands (ev):

     0.7927   5.1714  14.7820  16.9444  18.6119  18.8020

          k = 0.3846-0.2308 0.3846 (   961 PWs)   bands (ev):

    -0.6281   7.4779  14.6455  17.8091  18.7900  19.6268

          k = 0.3077-0.1538 0.3077 (   956 PWs)   bands (ev):

    -1.7640  10.0181  14.7763  18.4676  19.4546  20.8550

          k = 0.2308-0.0769 0.2308 (   954 PWs)   bands (ev):

    -2.6088  12.7504  15.1821  18.9478  20.4331  21.2456

          k = 0.1538 0.0000 0.1538 (   953 PWs)   bands (ev):

    -3.1578  15.3933  16.0557  19.3571  19.8862  21.0810

          k = 0.0000 0.3077 0.0000 (   962 PWs)   bands (ev):

    -2.7583  15.5418  15.5418  16.0468  18.1108  19.4134

          k =-0.0769 0.3846-0.0769 (   961 PWs)   bands (ev):

    -2.2106  13.0648  14.8954  16.2514  17.3278  18.7610

          k =-0.1538 0.4615-0.1538 (   967 PWs)   bands (ev):

    -1.3679  10.3679  14.5087  15.7981  16.1528  20.2320

          k =-0.2308 0.5385-0.2308 (   968 PWs)   bands (ev):

    -0.2350   7.8447  14.3816  14.5391  16.0553  22.1125

          k =-0.3077 0.6154-0.3077 (   977 PWs)   bands (ev):

     1.1818   5.5480  13.5026  14.5137  16.2280  21.8952

          k = 0.6154-0.3077 0.6154 (   968 PWs)   bands (ev):

     2.8743   3.5009  12.7307  14.9042  16.6686  21.1872

          k = 0.5385-0.2308 0.5385 (   971 PWs)   bands (ev):

     1.7166   4.8326  12.2321  15.5507  17.3779  20.7270

          k = 0.4615-0.1538 0.4615 (   967 PWs)   bands (ev):

     0.2063   7.0393  12.0153  16.4469  18.3464  20.5239

          k = 0.3846-0.0769 0.3846 (   960 PWs)   bands (ev):

    -1.0222   9.4536  12.1061  17.5745  19.5520  20.5699

          k = 0.3077 0.0000 0.3077 (   953 PWs)   bands (ev):

    -1.9623  11.7398  12.8084  18.8628  20.5184  20.9346

          k = 0.0000 0.4615 0.0000 (   978 PWs)   bands (ev):

    -1.7638  14.1589  14.1589  14.5262  15.4902  17.1995

          k =-0.0769 0.5385-0.0769 (   974 PWs)   bands (ev):

    -1.0223  11.7888  13.6832  13.8465  14.9943  17.5871

          k =-0.1538 0.6154-0.1538 (   971 PWs)   bands (ev):

     0.0098   9.2562  12.4366  13.4681  15.0411  19.2914

          k =-0.2308 0.6923-0.2308 (   973 PWs)   bands (ev):

     1.3261   6.9052  11.2892  13.5133  15.1688  21.4387

          k = 0.6923-0.2308 0.6923 (   967 PWs)   bands (ev):

     2.9177   4.7870  10.4162  13.8184  15.5371  23.4651

          k = 0.6154-0.1538 0.6154 (   971 PWs)   bands (ev):

     2.9236   4.7697   9.8295  14.3825  16.1720  22.9324

          k = 0.5385-0.0769 0.5385 (   972 PWs)   bands (ev):

     1.3282   6.8406   9.5632  15.2037  17.0711  22.6450

          k = 0.4615 0.0000 0.4615 (   967 PWs)   bands (ev):

     0.0104   8.7704   9.9634  16.2759  18.2156  22.8052

          k = 0.0000 0.6154 0.0000 (   974 PWs)   bands (ev):

    -0.3827  12.0748  13.1191  13.1191  13.3589  16.1799

          k =-0.0769 0.6923-0.0769 (   980 PWs)   bands (ev):

     0.5467  10.5506  10.8732  12.8162  14.0603  16.7451

          k =-0.1538 0.7692-0.1538 (   976 PWs)   bands (ev):

     1.7589   8.5086   9.3055  12.7740  14.2962  18.6350

          k = 0.7692-0.1538 0.7692 (   971 PWs)   bands (ev):

     3.2413   6.3387   8.3368  12.9922  14.6156  20.9861

          k = 0.6923-0.0769 0.6923 (   967 PWs)   bands (ev):

     4.4049   4.9564   7.6890  13.4705  15.1759  23.5051

          k = 0.6154 0.0000 0.6154 (   967 PWs)   bands (ev):

     2.7308   6.5381   7.7198  14.2084  15.9984  24.9382

          k = 0.0000 0.7692 0.0000 (   974 PWs)   bands (ev):

     1.3709   8.9276  12.4257  12.4257  12.5732  15.4773

          k =-0.0769 0.8462-0.0769 (   971 PWs)   bands (ev):

     2.4725   7.5785  10.3172  12.2960  13.4934  16.2241

          k = 0.8462-0.0769 0.8462 (   971 PWs)   bands (ev):

     3.8182   6.5420   8.1402  12.4270  13.9174  18.2989

          k = 0.7692 0.0000 0.7692 (   971 PWs)   bands (ev):

     5.0508   6.1067   6.2218  12.8185  14.4282  20.8302

          k = 0.0000 0.9231 0.0000 (   974 PWs)   bands (ev):

     3.4378   6.1588  12.0790  12.0790  12.1788  15.1160

          k = 0.9231 0.0000 0.9231 (   970 PWs)   bands (ev):

     4.3080   5.3921  10.1322  12.1227  13.3034  16.0477

          k =-0.1538 0.3077 0.0000 (   958 PWs)   bands (ev):

    -2.5589  13.5816  14.4307  18.3093  18.8747  20.0432

          k =-0.2308 0.3846-0.0769 (   956 PWs)   bands (ev):

    -1.8135  11.1105  13.6526  17.5889  18.4039  20.8328

          k =-0.3077 0.4615-0.1538 (   966 PWs)   bands (ev):

    -0.7758   8.5347  13.4043  16.2893  18.2397  21.1115

          k =-0.3846 0.5385-0.2308 (   974 PWs)   bands (ev):

     0.5485   6.1600  13.4454  15.1919  18.2972  20.1036

          k = 0.5385-0.3846 0.6923 (   968 PWs)   bands (ev):

     2.1521   4.0267  13.7605  14.3447  18.5679  19.3296

          k =-0.1538 0.4615 0.0000 (   964 PWs)   bands (ev):

    -1.5657  12.1126  13.0479  15.6627  16.9228  18.5584

          k =-0.2308 0.5385-0.0769 (   965 PWs)   bands (ev):

    -0.6282   9.8183  12.4132  14.1939  17.2051  19.8407

          k =-0.3077 0.6154-0.1538 (   965 PWs)   bands (ev):

     0.5968   7.4117  12.3353  12.9720  17.2799  21.6721

          k = 0.6154-0.3077 0.7692 (   966 PWs)   bands (ev):

     2.1020   5.2118  12.0112  12.5572  17.5459  21.4039

          k = 0.5385-0.2308 0.6923 (   966 PWs)   bands (ev):

     3.2591   3.8776  11.3281  13.0523  18.0547  20.7822

          k = 0.4615-0.1538 0.6154 (   969 PWs)   bands (ev):

     1.5706   5.9077  10.9287  13.8183  18.8013  20.3922

          k = 0.3846-0.0769 0.5385 (   964 PWs)   bands (ev):

     0.1573   8.1507  10.8438  14.8473  19.6990  20.2756

          k = 0.3077 0.0000 0.4615 (   964 PWs)   bands (ev):

    -0.9729  10.2576  11.3998  16.1261  19.7968  20.5523

          k =-0.1538 0.6154 0.0000 (   975 PWs)   bands (ev):

    -0.1863  11.0042  11.9816  12.2605  15.8364  17.5950

          k =-0.2308 0.6923-0.0769 (   970 PWs)   bands (ev):

     0.9368   8.8889  10.9191  11.5175  16.3199  19.0604

          k = 0.6923-0.2308 0.8462 (   975 PWs)   bands (ev):

     2.3392   6.6589   9.8604  11.6160  16.5875  21.2451

          k = 0.6154-0.1538 0.7692 (   968 PWs)   bands (ev):

     4.0068   4.6407   9.0851  12.0163  17.0414  22.9496

          k = 0.5385-0.0769 0.6923 (   967 PWs)   bands (ev):

     2.8741   5.9000   8.6304  12.6941  17.7370  22.6120

          k = 0.4615 0.0000 0.6154 (   966 PWs)   bands (ev):

     1.3764   7.6544   8.8503  13.6410  18.6697  22.0097

          k =-0.1538 0.7692 0.0000 (   976 PWs)   bands (ev):

     1.5650   9.1138  10.2629  11.2731  15.1031  16.9254

          k = 0.7692-0.1538 0.9231 (   971 PWs)   bands (ev):

     2.8573   7.9514   8.3364  10.9711  15.7776  18.5704

          k = 0.6923-0.0769 0.8462 (   974 PWs)   bands (ev):

     4.3876   6.2796   7.1206  11.2526  16.2321  20.9550

          k = 0.6154 0.0000 0.7692 (   972 PWs)   bands (ev):

     4.4493   5.7943   6.9533  11.8353  16.8683  23.4768

          k = 0.8462-0.0769 1.0000 (   973 PWs)   bands (ev):

     3.6281   6.3509   9.8918  10.9128  14.7348  16.5816

          k = 0.7692 0.0000 0.9231 (   971 PWs)   bands (ev):

     4.6793   5.7845   8.1451  10.7888  15.5954  18.4039

          k =-0.3077 0.6154 0.0000 (   968 PWs)   bands (ev):

     0.4014   9.1436  10.3093  12.7925  18.7742  20.0185

          k = 0.6154-0.3077 0.9231 (   971 PWs)   bands (ev):

     1.7146   7.2148   9.9232  11.6515  19.3137  21.0011

          k = 0.5385-0.2308 0.8462 (   966 PWs)   bands (ev):

     3.3022   5.1494  10.1878  10.7858  19.6223  20.4692

          k = 0.6923-0.2308 1.0000 (   967 PWs)   bands (ev):

     2.1460   8.4001   9.5264   9.7223  18.0604  19.4616

          k = 0.6154-0.1538 0.9231 (   969 PWs)   bands (ev):

     3.6244   6.6512   8.7034   9.3781  18.8191  21.2749

          k = 0.5385-0.0769 0.8462 (   969 PWs)   bands (ev):

     4.7683   5.3345   8.0637   9.8275  19.3841  22.1521

          k = 0.4615 0.0000 0.7692 (   966 PWs)   bands (ev):

     3.1100   6.9105   8.0944  10.5982  20.1013  21.3466

          k = 0.6923-0.0769 1.0000 (   970 PWs)   bands (ev):

     4.1979   6.9238   8.0283   9.2060  17.6988  19.1577

          k = 0.6154 0.0000 0.9231 (   970 PWs)   bands (ev):

     5.4226   6.4422   6.5857   9.1861  18.6478  21.1815

          k = 0.5385-0.0769 1.0000 (   967 PWs)   bands (ev):

     5.1444   6.5386   7.6714   7.9239  20.9993  21.5148

     the Fermi energy is     6.8596 ev

!    total energy              =     -39.49977012 Ry
     Harris-Foulkes estimate   =     -39.49977013 Ry
     estimated scf accuracy    <       0.00000005 Ry

     total all-electron energy =      -485.642552 Ry

     The total energy is the sum of the following terms:

     one-electron contribution =       2.92506963 Ry
     hartree contribution      =       0.00588821 Ry
     xc contribution           =      -2.97752627 Ry
     ewald contribution        =      -5.22326059 Ry
     one-center paw contrib.   =     -34.22991534 Ry
     smearing contrib. (-TS)   =      -0.00002575 Ry

     convergence has been achieved in   5 iterations

     Writing output data file Al.save

     init_run     :      0.64s CPU      0.69s WALL (       1 calls)
     electrons    :      6.24s CPU      6.54s WALL (       1 calls)

     Called by init_run:
     wfcinit      :      0.31s CPU      0.34s WALL (       1 calls)
     potinit      :      0.07s CPU      0.07s WALL (       1 calls)

     Called by electrons:
     c_bands      :      4.96s CPU      5.21s WALL (       6 calls)
     sum_band     :      0.91s CPU      0.95s WALL (       6 calls)
     v_of_rho     :      0.05s CPU      0.05s WALL (       6 calls)
     newd         :      0.02s CPU      0.02s WALL (       6 calls)
     mix_rho      :      0.04s CPU      0.04s WALL (       6 calls)

     Called by c_bands:
     init_us_2    :      0.22s CPU      0.17s WALL (    1092 calls)
     cegterg      :      4.78s CPU      5.02s WALL (     504 calls)

     Called by *egterg:
     h_psi        :      4.21s CPU      4.45s WALL (    1763 calls)
     s_psi        :      0.04s CPU      0.04s WALL (    1763 calls)
     g_psi        :      0.04s CPU      0.04s WALL (    1175 calls)
     cdiaghg      :      0.39s CPU      0.37s WALL (    1595 calls)

     Called by h_psi:
     add_vuspsi   :      0.05s CPU      0.05s WALL (    1763 calls)

     General routines
     calbec       :      0.10s CPU      0.12s WALL (    2267 calls)
     fft          :      0.03s CPU      0.03s WALL (      80 calls)
     fftw         :      4.64s CPU      4.65s WALL (   19350 calls)
     davcio       :      0.02s CPU      0.04s WALL (    1596 calls)

     Parallel routines
     fft_scatter  :      0.75s CPU      1.02s WALL (   19430 calls)

     PAW routines
     PAW_pot      :      0.31s CPU      0.31s WALL (       6 calls)
     PAW_ddot     :      0.04s CPU      0.04s WALL (      22 calls)
     PAW_symme    :      0.00s CPU      0.00s WALL (      12 calls)

     PWSCF        :     7.62s CPU         8.01s WALL


   This run was terminated on:   1:33:47  12Jul2015            

=------------------------------------------------------------------------------=
   JOB DONE.
=------------------------------------------------------------------------------=
