
     Program PWSCF v.5.0.2 (svn rev. 9656) starts on 26Jul2015 at  2: 7:51 

     This program is part of the open-source Quantum ESPRESSO suite
     for quantum simulation of materials; please cite
         "P. Giannozzi et al., J. Phys.:Condens. Matter 21 395502 (2009);
          URL http://www.quantum-espresso.org", 
     in publications or presentations arising from this work. More details at
     http://www.quantum-espresso.org/quote.php

     Parallel version (MPI), running on     4 processors
     R & G space division:  proc/nbgrp/npool/nimage =       4

     Current dimensions of program PWSCF are:
     Max number of different atomic species (ntypx) = 10
     Max number of k-points (npk) =  40000
     Max angular momentum in pseudopotentials (lmaxx) =  3
     Waiting for input...
     Reading input from standard input
               file C.pbe-rrkjus.UPF: wavefunction(s)  2S 2P renormalized

     Subspace diagonalization in iterative solution of the eigenvalue problem:
     a serial algorithm will be used


     Parallelization info
     --------------------
     sticks:   dense  smooth     PW     G-vecs:    dense   smooth      PW
     Min         211      78     27                58589    14254    2657
     Max         212      79     28                58614    14321    2684
     Sum         847     313    109               234415    57119   10663



     bravais-lattice index     =            0
     lattice parameter (alat)  =       4.6500  a.u.
     unit-cell volume          =    1044.8904 (a.u.)^3
     number of atoms/cell      =            2
     number of atomic types    =            1
     number of electrons       =         8.00
     number of Kohn-Sham states=            8
     kinetic-energy cutoff     =      55.0000  Ry
     charge density cutoff     =     560.0000  Ry
     convergence threshold     =      1.0E-08
     mixing beta               =       0.7000
     number of iterations used =            8  plain     mixing
     Exchange-correlation      =  SLA  PW   PBE  PBE ( 1 4 3 4 0)
     EXX-fraction              =        0.00

     celldm(1)=   4.650000  celldm(2)=   0.000000  celldm(3)=   0.000000
     celldm(4)=   0.000000  celldm(5)=   0.000000  celldm(6)=   0.000000

     crystal axes: (cart. coord. in units of alat)
               a(1) = (   1.000000   0.000000   0.000000 )  
               a(2) = (   0.500000   0.866025   0.000000 )  
               a(3) = (   0.000000   0.000000  12.000000 )  

     reciprocal axes: (cart. coord. in units 2 pi/alat)
               b(1) = (  1.000000 -0.577350  0.000000 )  
               b(2) = (  0.000000  1.154701  0.000000 )  
               b(3) = (  0.000000  0.000000  0.083333 )  


     PseudoPot. # 1 for C  read from file:
     ./C.pbe-rrkjus.UPF
     MD5 check sum: 00fb224312de0c5b6853bd333518df6f
     Pseudo is Ultrasoft, Zval =  4.0
     Generated by new atomic code, or converted to UPF format
     Using radial grid of  627 points,  4 beta functions with: 
                l(1) =   0
                l(2) =   0
                l(3) =   1
                l(4) =   1
     Q(r) pseudized with 0 coefficients 


     atomic species   valence    mass     pseudopotential
        C              4.00    12.00000     C ( 1.00)

     24 Sym. Ops., with inversion, found (12 have fractional translation)



   Cartesian axes

     site n.     atom                  positions (alat units)
         1           C   tau(   1) = (   0.0000000   0.0000000   0.0000000  )
         2           C   tau(   2) = (   1.0000000   0.5773503   0.0000000  )

     number of k points=    10  gaussian smearing, width (Ry)=  0.0010
                       cart. coord. in units 2pi/alat
        k(    1) = (   0.0000000   0.0000000   0.0000000), wk =   0.0312500
        k(    2) = (   0.0000000   0.1443376   0.0000000), wk =   0.1875000
        k(    3) = (   0.0000000   0.2886751   0.0000000), wk =   0.1875000
        k(    4) = (   0.0000000   0.4330127   0.0000000), wk =   0.1875000
        k(    5) = (   0.0000000  -0.5773503   0.0000000), wk =   0.0937500
        k(    6) = (   0.1250000   0.2165064   0.0000000), wk =   0.1875000
        k(    7) = (   0.1250000   0.3608439   0.0000000), wk =   0.3750000
        k(    8) = (   0.1250000  -0.6495191   0.0000000), wk =   0.3750000
        k(    9) = (   0.2500000  -0.7216878   0.0000000), wk =   0.1875000
        k(   10) = (   0.2500000  -0.5773503   0.0000000), wk =   0.1875000

     Dense  grid:   234415 G-vectors     FFT dimensions: (  36,  36, 432)

     Smooth grid:    57119 G-vectors     FFT dimensions: (  24,  24, 270)

     Largest allocated arrays     est. size (Mb)     dimensions
        Kohn-Sham Wavefunctions         0.22 Mb     (   1830,    8)
        NL pseudopotentials             0.45 Mb     (   1830,   16)
        Each V/rho on FFT grid          2.14 Mb     ( 139968)
        Each G-vector array             0.45 Mb     (  58604)
        G-vector shells                 0.13 Mb     (  17415)
     Largest temporary arrays     est. size (Mb)     dimensions
        Auxiliary wavefunctions         0.89 Mb     (   1830,   32)
        Each subspace H/S matrix        0.02 Mb     (  32,  32)
        Each <psi_i|beta_j> matrix      0.00 Mb     (     16,    8)
        Arrays for rho mixing          17.09 Mb     ( 139968,   8)

     Initial potential from superposition of free atoms

     starting charge    7.99989, renormalised to    8.00000

     negative rho (up, down):  0.254E-04 0.000E+00
     Starting wfc are    8 randomized atomic wfcs

     total cpu time spent up to now is        2.7 secs

     per-process dynamical memory:    36.4 Mb

     Self-consistent Calculation

     iteration #  1     ecut=    55.00 Ry     beta=0.70
     Davidson diagonalization with overlap
     ethr =  1.00E-02,  avg # of iterations =  5.5

     negative rho (up, down):  0.178E-04 0.000E+00

     total cpu time spent up to now is        5.9 secs

     total energy              =     -22.75950555 Ry
     Harris-Foulkes estimate   =     -22.88402904 Ry
     estimated scf accuracy    <       0.20667718 Ry

     iteration #  2     ecut=    55.00 Ry     beta=0.70
     Davidson diagonalization with overlap
     ethr =  2.58E-03,  avg # of iterations =  3.0

     negative rho (up, down):  0.169E-04 0.000E+00

     total cpu time spent up to now is        8.4 secs

     total energy              =     -22.79064601 Ry
     Harris-Foulkes estimate   =     -22.79078282 Ry
     estimated scf accuracy    <       0.00251801 Ry

     iteration #  3     ecut=    55.00 Ry     beta=0.70
     Davidson diagonalization with overlap
     ethr =  3.15E-05,  avg # of iterations = 10.8

     negative rho (up, down):  0.186E-04 0.000E+00

     total cpu time spent up to now is       12.3 secs

     total energy              =     -22.79101782 Ry
     Harris-Foulkes estimate   =     -22.79098716 Ry
     estimated scf accuracy    <       0.00013683 Ry

     iteration #  4     ecut=    55.00 Ry     beta=0.70
     Davidson diagonalization with overlap
     ethr =  1.71E-06,  avg # of iterations =  3.9

     negative rho (up, down):  0.187E-04 0.000E+00

     total cpu time spent up to now is       14.9 secs

     total energy              =     -22.79102324 Ry
     Harris-Foulkes estimate   =     -22.79102242 Ry
     estimated scf accuracy    <       0.00000099 Ry

     iteration #  5     ecut=    55.00 Ry     beta=0.70
     Davidson diagonalization with overlap
     ethr =  1.24E-08,  avg # of iterations =  2.4

     negative rho (up, down):  0.187E-04 0.000E+00

     total cpu time spent up to now is       17.4 secs

     total energy              =     -22.79102359 Ry
     Harris-Foulkes estimate   =     -22.79102358 Ry
     estimated scf accuracy    <       0.00000002 Ry

     iteration #  6     ecut=    55.00 Ry     beta=0.70
     Davidson diagonalization with overlap
     ethr =  3.11E-10,  avg # of iterations =  2.0

     negative rho (up, down):  0.186E-04 0.000E+00

     total cpu time spent up to now is       19.8 secs

     End of self-consistent calculation

          k = 0.0000 0.0000 0.0000 (  7331 PWs)   bands (ev):

   -22.4901 -10.6005  -6.0230  -6.0230   0.3039   1.0417   1.2089   1.5613

          k = 0.0000 0.1443 0.0000 (  7299 PWs)   bands (ev):

   -22.1209 -10.1591  -7.3987  -6.7275   0.8069   1.5530   1.7261   2.0757

          k = 0.0000 0.2887 0.0000 (  7220 PWs)   bands (ev):

   -21.0227 -10.3982  -8.8651  -8.0384   2.3137   3.0723   3.2774   3.6096

          k = 0.0000 0.4330 0.0000 (  7188 PWs)   bands (ev):

   -19.2331 -13.6749  -9.0471  -6.8771   0.8548   4.6118   4.8976   5.6367

          k = 0.0000-0.5774 0.0000 (  7076 PWs)   bands (ev):

   -17.2281 -16.2194  -9.4100  -5.3177  -1.2656   4.5031   8.1873   8.3405

          k = 0.1250 0.2165 0.0000 (  7219 PWs)   bands (ev):

   -21.3872  -9.2897  -9.1949  -8.1330   1.8134   2.5729   2.7604   3.1034

          k = 0.1250 0.3608 0.0000 (  7196 PWs)   bands (ev):

   -19.9425 -11.9805  -9.6508  -7.6230   2.2694   3.8174   4.6046   4.8289

          k = 0.1250-0.6495 0.0000 (  7156 PWs)   bands (ev):

   -17.8707 -14.9825 -10.4177  -5.5230  -0.7076   6.0656   6.8066   7.5595

          k = 0.2500-0.7217 0.0000 (  7183 PWs)   bands (ev):

   -18.1997 -13.4893 -11.9483  -5.6981  -0.1208   6.2910   6.9524   7.4140

          k = 0.2500-0.5774 0.0000 (  7168 PWs)   bands (ev):

   -16.2826 -15.4208 -12.7300  -3.9745  -1.9961   7.9931   9.1959   9.3689

     the Fermi energy is    -2.5714 ev

!    total energy              =     -22.79102360 Ry
     Harris-Foulkes estimate   =     -22.79102360 Ry
     estimated scf accuracy    <          8.6E-10 Ry

     The total energy is the sum of the following terms:

     one-electron contribution =    -353.76143617 Ry
     hartree contribution      =     177.89100459 Ry
     xc contribution           =      -7.02483345 Ry
     ewald contribution        =     160.10424143 Ry
     smearing contrib. (-TS)   =      -0.00000000 Ry

     convergence has been achieved in   6 iterations

     Writing output data file graphene.save

     init_run     :      2.49s CPU      2.62s WALL (       1 calls)
     electrons    :     16.40s CPU     17.07s WALL (       1 calls)

     Called by init_run:
     wfcinit      :      0.51s CPU      0.54s WALL (       1 calls)
     potinit      :      0.89s CPU      0.92s WALL (       1 calls)

     Called by electrons:
     c_bands      :      9.42s CPU      9.73s WALL (       6 calls)
     sum_band     :      3.46s CPU      3.60s WALL (       6 calls)
     v_of_rho     :      1.72s CPU      1.83s WALL (       7 calls)
     newd         :      1.64s CPU      1.71s WALL (       7 calls)
     mix_rho      :      0.22s CPU      0.23s WALL (       6 calls)

     Called by c_bands:
     init_us_2    :      0.18s CPU      0.20s WALL (     130 calls)
     cegterg      :      9.20s CPU      9.48s WALL (      60 calls)

     Called by *egterg:
     h_psi        :      8.63s CPU      8.89s WALL (     346 calls)
     s_psi        :      0.13s CPU      0.12s WALL (     346 calls)
     g_psi        :      0.06s CPU      0.06s WALL (     276 calls)
     cdiaghg      :      0.13s CPU      0.14s WALL (     336 calls)

     Called by h_psi:
     add_vuspsi   :      0.13s CPU      0.13s WALL (     346 calls)

     General routines
     calbec       :      0.24s CPU      0.23s WALL (     406 calls)
     fft          :      1.59s CPU      1.66s WALL (     107 calls)
     ffts         :      0.04s CPU      0.05s WALL (      13 calls)
     fftw         :      6.48s CPU      6.72s WALL (    3634 calls)
     interpolate  :      0.29s CPU      0.29s WALL (      13 calls)
     davcio       :      0.04s CPU      0.04s WALL (     190 calls)

     Parallel routines
     fft_scatter  :      3.49s CPU      3.59s WALL (    3754 calls)

     PWSCF        :    19.09s CPU        19.93s WALL


   This run was terminated on:   2: 8:11  26Jul2015            

=------------------------------------------------------------------------------=
   JOB DONE.
=------------------------------------------------------------------------------=
