
     Program PWSCF v.5.0.2 (svn rev. 9656) starts on 12Jul2015 at  1:33:57 

     This program is part of the open-source Quantum ESPRESSO suite
     for quantum simulation of materials; please cite
         "P. Giannozzi et al., J. Phys.:Condens. Matter 21 395502 (2009);
          URL http://www.quantum-espresso.org", 
     in publications or presentations arising from this work. More details at
     http://www.quantum-espresso.org/quote.php

     Parallel version (MPI), running on     4 processors
     R & G space division:  proc/nbgrp/npool/nimage =       4

     Current dimensions of program PWSCF are:
     Max number of different atomic species (ntypx) = 10
     Max number of k-points (npk) =  40000
     Max angular momentum in pseudopotentials (lmaxx) =  3
     Waiting for input...
     Reading input from standard input
               file Al.pbe-n-kjpaw_psl.0.1.UPF: wavefunction(s)  3S renormalized

     Subspace diagonalization in iterative solution of the eigenvalue problem:
     a serial algorithm will be used


     Parallelization info
     --------------------
     sticks:   dense  smooth     PW     G-vecs:    dense   smooth      PW
     Min         139     139     42                 2163     2163     367
     Max         140     140     43                 2165     2165     368
     Sum         559     559    169                 8657     8657    1471



     bravais-lattice index     =            2
     lattice parameter (alat)  =       8.2000  a.u.
     unit-cell volume          =     137.8420 (a.u.)^3
     number of atoms/cell      =            1
     number of atomic types    =            1
     number of electrons       =         3.00
     number of Kohn-Sham states=            6
     kinetic-energy cutoff     =      60.0000  Ry
     charge density cutoff     =     240.0000  Ry
     convergence threshold     =      1.0E-07
     mixing beta               =       0.7000
     number of iterations used =            8  plain     mixing
     Exchange-correlation      =  SLA  PW   PBX  PBC ( 1 4 3 4 0)
     EXX-fraction              =        0.00

     celldm(1)=   8.200000  celldm(2)=   0.000000  celldm(3)=   0.000000
     celldm(4)=   0.000000  celldm(5)=   0.000000  celldm(6)=   0.000000

     crystal axes: (cart. coord. in units of alat)
               a(1) = (  -0.500000   0.000000   0.500000 )  
               a(2) = (   0.000000   0.500000   0.500000 )  
               a(3) = (  -0.500000   0.500000   0.000000 )  

     reciprocal axes: (cart. coord. in units 2 pi/alat)
               b(1) = ( -1.000000 -1.000000  1.000000 )  
               b(2) = (  1.000000  1.000000  1.000000 )  
               b(3) = ( -1.000000  1.000000 -1.000000 )  


     PseudoPot. # 1 for Al read from file:
     ./Al.pbe-n-kjpaw_psl.0.1.UPF
     MD5 check sum: 023d9faf819c76fc4df1f064efe7b7b2
     Pseudo is Projector augmented-wave + core cor, Zval =  3.0
     Generated using "atomic" code by A. Dal Corso  v.5.0.2 svn rev. 9415
     Shape of augmentation charge: PSQ
     Using radial grid of 1135 points,  4 beta functions with: 
                l(1) =   0
                l(2) =   0
                l(3) =   1
                l(4) =   1
     Q(r) pseudized with 0 coefficients 


     atomic species   valence    mass     pseudopotential
        Al             3.00    26.98154     Al( 1.00)

     48 Sym. Ops., with inversion, found



   Cartesian axes

     site n.     atom                  positions (alat units)
         1           Al  tau(   1) = (   0.0000000   0.0000000   0.0000000  )

     number of k points=    84  gaussian smearing, width (Ry)=  0.0030
                       cart. coord. in units 2pi/alat
        k(    1) = (   0.0000000   0.0000000   0.0000000), wk =   0.0009103
        k(    2) = (  -0.0769231   0.0769231  -0.0769231), wk =   0.0072827
        k(    3) = (  -0.1538462   0.1538462  -0.1538462), wk =   0.0072827
        k(    4) = (  -0.2307692   0.2307692  -0.2307692), wk =   0.0072827
        k(    5) = (  -0.3076923   0.3076923  -0.3076923), wk =   0.0072827
        k(    6) = (  -0.3846154   0.3846154  -0.3846154), wk =   0.0072827
        k(    7) = (  -0.4615385   0.4615385  -0.4615385), wk =   0.0072827
        k(    8) = (   0.0000000   0.1538462   0.0000000), wk =   0.0054620
        k(    9) = (  -0.0769231   0.2307692  -0.0769231), wk =   0.0218480
        k(   10) = (  -0.1538462   0.3076923  -0.1538462), wk =   0.0218480
        k(   11) = (  -0.2307692   0.3846154  -0.2307692), wk =   0.0218480
        k(   12) = (  -0.3076923   0.4615385  -0.3076923), wk =   0.0218480
        k(   13) = (  -0.3846154   0.5384615  -0.3846154), wk =   0.0218480
        k(   14) = (   0.5384615  -0.3846154   0.5384615), wk =   0.0218480
        k(   15) = (   0.4615385  -0.3076923   0.4615385), wk =   0.0218480
        k(   16) = (   0.3846154  -0.2307692   0.3846154), wk =   0.0218480
        k(   17) = (   0.3076923  -0.1538462   0.3076923), wk =   0.0218480
        k(   18) = (   0.2307692  -0.0769231   0.2307692), wk =   0.0218480
        k(   19) = (   0.1538462   0.0000000   0.1538462), wk =   0.0109240
        k(   20) = (   0.0000000   0.3076923   0.0000000), wk =   0.0054620
        k(   21) = (  -0.0769231   0.3846154  -0.0769231), wk =   0.0218480
        k(   22) = (  -0.1538462   0.4615385  -0.1538462), wk =   0.0218480
        k(   23) = (  -0.2307692   0.5384615  -0.2307692), wk =   0.0218480
        k(   24) = (  -0.3076923   0.6153846  -0.3076923), wk =   0.0218480
        k(   25) = (   0.6153846  -0.3076923   0.6153846), wk =   0.0218480
        k(   26) = (   0.5384615  -0.2307692   0.5384615), wk =   0.0218480
        k(   27) = (   0.4615385  -0.1538462   0.4615385), wk =   0.0218480
        k(   28) = (   0.3846154  -0.0769231   0.3846154), wk =   0.0218480
        k(   29) = (   0.3076923   0.0000000   0.3076923), wk =   0.0109240
        k(   30) = (   0.0000000   0.4615385   0.0000000), wk =   0.0054620
        k(   31) = (  -0.0769231   0.5384615  -0.0769231), wk =   0.0218480
        k(   32) = (  -0.1538462   0.6153846  -0.1538462), wk =   0.0218480
        k(   33) = (  -0.2307692   0.6923077  -0.2307692), wk =   0.0218480
        k(   34) = (   0.6923077  -0.2307692   0.6923077), wk =   0.0218480
        k(   35) = (   0.6153846  -0.1538462   0.6153846), wk =   0.0218480
        k(   36) = (   0.5384615  -0.0769231   0.5384615), wk =   0.0218480
        k(   37) = (   0.4615385   0.0000000   0.4615385), wk =   0.0109240
        k(   38) = (   0.0000000   0.6153846   0.0000000), wk =   0.0054620
        k(   39) = (  -0.0769231   0.6923077  -0.0769231), wk =   0.0218480
        k(   40) = (  -0.1538462   0.7692308  -0.1538462), wk =   0.0218480
        k(   41) = (   0.7692308  -0.1538462   0.7692308), wk =   0.0218480
        k(   42) = (   0.6923077  -0.0769231   0.6923077), wk =   0.0218480
        k(   43) = (   0.6153846   0.0000000   0.6153846), wk =   0.0109240
        k(   44) = (   0.0000000   0.7692308   0.0000000), wk =   0.0054620
        k(   45) = (  -0.0769231   0.8461538  -0.0769231), wk =   0.0218480
        k(   46) = (   0.8461538  -0.0769231   0.8461538), wk =   0.0218480
        k(   47) = (   0.7692308   0.0000000   0.7692308), wk =   0.0109240
        k(   48) = (   0.0000000   0.9230769   0.0000000), wk =   0.0054620
        k(   49) = (   0.9230769   0.0000000   0.9230769), wk =   0.0109240
        k(   50) = (  -0.1538462   0.3076923   0.0000000), wk =   0.0218480
        k(   51) = (  -0.2307692   0.3846154  -0.0769231), wk =   0.0436959
        k(   52) = (  -0.3076923   0.4615385  -0.1538462), wk =   0.0436959
        k(   53) = (  -0.3846154   0.5384615  -0.2307692), wk =   0.0436959
        k(   54) = (   0.5384615  -0.3846154   0.6923077), wk =   0.0436959
        k(   55) = (  -0.1538462   0.4615385   0.0000000), wk =   0.0218480
        k(   56) = (  -0.2307692   0.5384615  -0.0769231), wk =   0.0436959
        k(   57) = (  -0.3076923   0.6153846  -0.1538462), wk =   0.0436959
        k(   58) = (   0.6153846  -0.3076923   0.7692308), wk =   0.0436959
        k(   59) = (   0.5384615  -0.2307692   0.6923077), wk =   0.0436959
        k(   60) = (   0.4615385  -0.1538462   0.6153846), wk =   0.0436959
        k(   61) = (   0.3846154  -0.0769231   0.5384615), wk =   0.0436959
        k(   62) = (   0.3076923   0.0000000   0.4615385), wk =   0.0218480
        k(   63) = (  -0.1538462   0.6153846   0.0000000), wk =   0.0218480
        k(   64) = (  -0.2307692   0.6923077  -0.0769231), wk =   0.0436959
        k(   65) = (   0.6923077  -0.2307692   0.8461538), wk =   0.0436959
        k(   66) = (   0.6153846  -0.1538462   0.7692308), wk =   0.0436959
        k(   67) = (   0.5384615  -0.0769231   0.6923077), wk =   0.0436959
        k(   68) = (   0.4615385   0.0000000   0.6153846), wk =   0.0218480
        k(   69) = (  -0.1538462   0.7692308   0.0000000), wk =   0.0218480
        k(   70) = (   0.7692308  -0.1538462   0.9230769), wk =   0.0436959
        k(   71) = (   0.6923077  -0.0769231   0.8461538), wk =   0.0436959
        k(   72) = (   0.6153846   0.0000000   0.7692308), wk =   0.0218480
        k(   73) = (   0.8461538  -0.0769231   1.0000000), wk =   0.0218480
        k(   74) = (   0.7692308   0.0000000   0.9230769), wk =   0.0218480
        k(   75) = (  -0.3076923   0.6153846   0.0000000), wk =   0.0218480
        k(   76) = (   0.6153846  -0.3076923   0.9230769), wk =   0.0436959
        k(   77) = (   0.5384615  -0.2307692   0.8461538), wk =   0.0436959
        k(   78) = (   0.6923077  -0.2307692   1.0000000), wk =   0.0218480
        k(   79) = (   0.6153846  -0.1538462   0.9230769), wk =   0.0436959
        k(   80) = (   0.5384615  -0.0769231   0.8461538), wk =   0.0436959
        k(   81) = (   0.4615385   0.0000000   0.7692308), wk =   0.0218480
        k(   82) = (   0.6923077  -0.0769231   1.0000000), wk =   0.0218480
        k(   83) = (   0.6153846   0.0000000   0.9230769), wk =   0.0218480
        k(   84) = (   0.5384615  -0.0769231   1.0000000), wk =   0.0218480

     Dense  grid:     8657 G-vectors     FFT dimensions: (  30,  30,  30)

     Largest allocated arrays     est. size (Mb)     dimensions
        Kohn-Sham Wavefunctions         0.03 Mb     (    278,    6)
        NL pseudopotentials             0.03 Mb     (    278,    8)
        Each V/rho on FFT grid          0.11 Mb     (   7200)
        Each G-vector array             0.02 Mb     (   2163)
        G-vector shells                 0.00 Mb     (    137)
     Largest temporary arrays     est. size (Mb)     dimensions
        Auxiliary wavefunctions         0.10 Mb     (    278,   24)
        Each subspace H/S matrix        0.01 Mb     (  24,  24)
        Each <psi_i|beta_j> matrix      0.00 Mb     (      8,    6)
        Arrays for rho mixing           0.88 Mb     (   7200,   8)

     Check: negative/imaginary core charge=   -0.000001    0.000000

     Initial potential from superposition of free atoms

     starting charge    2.99771, renormalised to    3.00000
     Starting wfc are    4 randomized atomic wfcs
     Checking if some PAW data can be deallocated... 

     total cpu time spent up to now is        1.3 secs

     per-process dynamical memory:     9.3 Mb

     Self-consistent Calculation

     iteration #  1     ecut=    60.00 Ry     beta=0.70
     Davidson diagonalization with overlap
     ethr =  1.00E-02,  avg # of iterations =  4.9

     Threshold (ethr) on eigenvalues was too large:
     Diagonalizing with lowered threshold

     Davidson diagonalization with overlap
     ethr =  1.97E-04,  avg # of iterations =  2.2

     total cpu time spent up to now is        5.5 secs

     total energy              =     -39.49124186 Ry
     Harris-Foulkes estimate   =     -39.49273607 Ry
     estimated scf accuracy    <       0.00561824 Ry

     iteration #  2     ecut=    60.00 Ry     beta=0.70
     Davidson diagonalization with overlap
     ethr =  1.87E-04,  avg # of iterations =  1.0

     total cpu time spent up to now is        6.9 secs

     total energy              =     -39.49126027 Ry
     Harris-Foulkes estimate   =     -39.49135497 Ry
     estimated scf accuracy    <       0.00036615 Ry

     iteration #  3     ecut=    60.00 Ry     beta=0.70
     Davidson diagonalization with overlap
     ethr =  1.22E-05,  avg # of iterations =  2.5

     total cpu time spent up to now is        8.6 secs

     total energy              =     -39.49130345 Ry
     Harris-Foulkes estimate   =     -39.49130449 Ry
     estimated scf accuracy    <       0.00000273 Ry

     iteration #  4     ecut=    60.00 Ry     beta=0.70
     Davidson diagonalization with overlap
     ethr =  9.09E-08,  avg # of iterations =  2.6

     total cpu time spent up to now is       10.3 secs

     total energy              =     -39.49130425 Ry
     Harris-Foulkes estimate   =     -39.49130448 Ry
     estimated scf accuracy    <       0.00000056 Ry

     iteration #  5     ecut=    60.00 Ry     beta=0.70
     Davidson diagonalization with overlap
     ethr =  1.86E-08,  avg # of iterations =  1.1

     total cpu time spent up to now is       11.7 secs

     End of self-consistent calculation

          k = 0.0000 0.0000 0.0000 (  1067 PWs)   bands (ev):

    -3.8735  17.3753  17.3753  17.3856  17.3856  17.3856

          k =-0.0769 0.0769-0.0769 (  1085 PWs)   bands (ev):

    -3.7341  14.8860  16.4646  16.4647  18.4855  18.4993

          k =-0.1538 0.1538-0.1538 (  1073 PWs)   bands (ev):

    -3.3167  12.1522  15.7751  15.7751  18.4965  19.4882

          k =-0.2308 0.2308-0.2308 (  1077 PWs)   bands (ev):

    -2.6232   9.5176  15.3183  15.3183  18.3277  19.0411

          k =-0.3077 0.3077-0.3077 (  1089 PWs)   bands (ev):

    -1.6575   7.0673  15.0899  15.0899  17.9746  17.9746

          k =-0.3846 0.3846-0.3846 (  1083 PWs)   bands (ev):

    -0.4248   4.8355  15.0689  15.0689  17.0648  17.0648

          k =-0.4615 0.4615-0.4615 (  1074 PWs)   bands (ev):

     1.0615   2.8474  15.1721  15.1721  16.4868  16.4868

          k = 0.0000 0.1538 0.0000 (  1082 PWs)   bands (ev):

    -3.6877  15.4728  15.4728  16.3130  16.9226  19.5418

          k =-0.0769 0.2308-0.0769 (  1065 PWs)   bands (ev):

    -3.3630  13.1371  14.7071  15.9757  17.3744  19.6079

          k =-0.1538 0.3077-0.1538 (  1075 PWs)   bands (ev):

    -2.7616  10.4812  14.1792  15.4875  17.4273  19.3261

          k =-0.2308 0.3846-0.2308 (  1083 PWs)   bands (ev):

    -1.8867   7.9728  13.8918  15.1201  16.3928  19.5683

          k =-0.3077 0.4615-0.3077 (  1085 PWs)   bands (ev):

    -0.7430   5.6694  13.8439  14.6903  15.7256  18.7474

          k =-0.3846 0.5385-0.3846 (  1087 PWs)   bands (ev):

     0.6613   3.5981  14.0315  14.0446  15.7348  17.9432

          k = 0.5385-0.3846 0.5385 (  1078 PWs)   bands (ev):

     1.7092   2.3829  13.4835  14.4438  16.1454  17.3814

          k = 0.4615-0.3077 0.4615 (  1081 PWs)   bands (ev):

     0.1652   4.2609  13.1309  15.0506  16.8370  17.1013

          k = 0.3846-0.2308 0.3846 (  1081 PWs)   bands (ev):

    -1.1537   6.4117  13.0143  15.7560  17.1919  17.7724

          k = 0.3077-0.1538 0.3077 (  1079 PWs)   bands (ev):

    -2.2085   8.7853  13.1420  16.3714  17.7964  18.9092

          k = 0.2308-0.0769 0.2308 (  1073 PWs)   bands (ev):

    -2.9926  11.3451  13.5195  16.9249  18.4765  19.1393

          k = 0.1538 0.0000 0.1538 (  1069 PWs)   bands (ev):

    -3.5021  13.8621  14.2911  17.5165  17.7352  18.9471

          k = 0.0000 0.3077 0.0000 (  1074 PWs)   bands (ev):

    -3.1313  13.8601  13.8601  14.6948  15.7908  17.7899

          k =-0.0769 0.3846-0.0769 (  1072 PWs)   bands (ev):

    -2.6229  11.6393  13.2515  14.5986  15.4591  16.9711

          k =-0.1538 0.4615-0.1538 (  1079 PWs)   bands (ev):

    -1.8404   9.1152  12.8850  13.9055  14.7418  18.2282

          k =-0.2308 0.5385-0.2308 (  1083 PWs)   bands (ev):

    -0.7878   6.7557  12.7614  12.8691  14.5109  19.9504

          k =-0.3077 0.6154-0.3077 (  1090 PWs)   bands (ev):

     0.5284   4.6123  11.9421  12.8798  14.6263  19.8857

          k = 0.6154-0.3077 0.6154 (  1086 PWs)   bands (ev):

     2.0723   2.7355  11.2366  13.2380  15.0172  19.2334

          k = 0.5385-0.2308 0.5385 (  1088 PWs)   bands (ev):

     1.0238   3.9487  10.7766  13.8310  15.6680  18.8178

          k = 0.4615-0.1538 0.4615 (  1080 PWs)   bands (ev):

    -0.3780   6.0086  10.5726  14.6472  16.5655  18.6533

          k = 0.3846-0.0769 0.3846 (  1080 PWs)   bands (ev):

    -1.5195   8.2787  10.6415  15.6564  17.6858  18.7473

          k = 0.3077 0.0000 0.3077 (  1073 PWs)   bands (ev):

    -2.3926  10.4797  11.2301  16.7471  18.8103  18.9641

          k = 0.0000 0.4615 0.0000 (  1070 PWs)   bands (ev):

    -2.2080  12.5610  12.5610  13.2884  13.6512  15.4056

          k =-0.0769 0.5385-0.0769 (  1075 PWs)   bands (ev):

    -1.5188  10.4528  12.1131  12.2357  13.5765  15.6902

          k =-0.1538 0.6154-0.1538 (  1076 PWs)   bands (ev):

    -0.5592   8.0789  10.9596  11.9090  13.5440  17.3233

          k =-0.2308 0.6923-0.2308 (  1080 PWs)   bands (ev):

     0.6655   5.8796   9.9024  11.9487  13.6309  19.3439

          k = 0.6923-0.2308 0.6923 (  1087 PWs)   bands (ev):

     2.1429   3.9073   9.0917  12.2312  13.9586  21.3514

          k = 0.6154-0.1538 0.6154 (  1081 PWs)   bands (ev):

     2.1452   3.8985   8.5409  12.7546  14.5412  20.8597

          k = 0.5385-0.0769 0.5385 (  1089 PWs)   bands (ev):

     0.6657   5.8431   8.2726  13.5144  15.3739  20.6040

          k = 0.4615 0.0000 0.4615 (  1077 PWs)   bands (ev):

    -0.5596   7.7151   8.5724  14.4983  16.4386  20.6021

          k = 0.0000 0.6154 0.0000 (  1078 PWs)   bands (ev):

    -0.9238  10.6148  11.5835  11.5835  12.2075  14.2971

          k =-0.0769 0.6923-0.0769 (  1074 PWs)   bands (ev):

    -0.0585   9.1969   9.6243  11.2980  12.6774  14.8663

          k =-0.1538 0.7692-0.1538 (  1078 PWs)   bands (ev):

     1.0715   7.3728   8.0708  11.2569  12.8342  16.7001

          k = 0.7692-0.1538 0.7692 (  1090 PWs)   bands (ev):

     2.4559   5.3484   7.1577  11.4598  13.1076  18.9236

          k = 0.6923-0.0769 0.6923 (  1093 PWs)   bands (ev):

     3.5138   4.1018   6.5336  11.9058  13.6177  21.2871

          k = 0.6154 0.0000 0.6154 (  1085 PWs)   bands (ev):

     1.9714   5.6310   6.4874  12.5927  14.3772  22.6021

          k = 0.0000 0.7692 0.0000 (  1082 PWs)   bands (ev):

     0.7109   7.7042  10.9310  10.9310  11.4797  13.6111

          k =-0.0769 0.8462-0.0769 (  1078 PWs)   bands (ev):

     1.7420   6.4438   9.0935  10.8086  12.1434  14.3695

          k = 0.8462-0.0769 0.8462 (  1091 PWs)   bands (ev):

     3.0138   5.4556   7.0493  10.9306  12.4787  16.3826

          k = 0.7692 0.0000 0.7692 (  1097 PWs)   bands (ev):

     4.2402   4.9328   5.2893  11.2967  12.9319  18.7782

          k = 0.0000 0.9231 0.0000 (  1090 PWs)   bands (ev):

     2.6592   5.1056  10.6046  10.6046  11.1142  13.2668

          k = 0.9231 0.0000 0.9231 (  1090 PWs)   bands (ev):

     3.5449   4.3156   8.9208  10.6454  11.9650  14.2026

          k =-0.1538 0.3077 0.0000 (  1075 PWs)   bands (ev):

    -2.9463  12.1853  12.7607  16.6026  16.6626  18.3208

          k =-0.2308 0.3846-0.0769 (  1081 PWs)   bands (ev):

    -2.2544   9.8206  12.0867  15.6223  16.7559  18.8028

          k =-0.3077 0.4615-0.1538 (  1080 PWs)   bands (ev):

    -1.2905   7.4028  11.8622  14.5097  16.5094  19.1017

          k =-0.3846 0.5385-0.2308 (  1090 PWs)   bands (ev):

    -0.0603   5.1834  11.8957  13.5284  16.5096  18.2077

          k = 0.5385-0.3846 0.6923 (  1087 PWs)   bands (ev):

     1.4237   3.2011  12.1609  12.7793  16.7056  17.5339

          k =-0.1538 0.4615 0.0000 (  1070 PWs)   bands (ev):

    -2.0241  10.8212  11.4619  13.9278  15.3547  16.6161

          k =-0.2308 0.5385-0.0769 (  1074 PWs)   bands (ev):

    -1.1528   8.6177  10.9229  12.6110  15.5447  17.8278

          k =-0.3077 0.6154-0.1538 (  1076 PWs)   bands (ev):

    -0.0139   6.3559  10.8437  11.5046  15.5679  19.5443

          k = 0.6154-0.3077 0.7692 (  1081 PWs)   bands (ev):

     1.3847   4.3014  10.5460  11.1208  15.7933  19.3954

          k = 0.5385-0.2308 0.6923 (  1090 PWs)   bands (ev):

     2.4347   3.0851   9.9332  11.5580  16.2512  18.8393

          k = 0.4615-0.1538 0.6154 (  1085 PWs)   bands (ev):

     0.8907   4.9543   9.5604  12.2642  16.9265  18.5032

          k = 0.3846-0.0769 0.5385 (  1079 PWs)   bands (ev):

    -0.4230   7.0645   9.4638  13.2136  17.7272  18.4449

          k = 0.3077 0.0000 0.4615 (  1078 PWs)   bands (ev):

    -1.4735   9.1007   9.9122  14.3823  18.0324  18.4320

          k =-0.1538 0.6154 0.0000 (  1070 PWs)   bands (ev):

    -0.7413   9.7912  10.4115  10.8735  14.3361  15.6436

          k =-0.2308 0.6923-0.0769 (  1074 PWs)   bands (ev):

     0.3041   7.7500   9.5383  10.1320  14.7080  17.0817

          k = 0.6923-0.2308 0.8462 (  1085 PWs)   bands (ev):

     1.6106   5.6530   8.5728  10.2150  14.9154  19.1563

          k = 0.6154-0.1538 0.7692 (  1090 PWs)   bands (ev):

     3.1482   3.7866   7.8484  10.5874  15.3208  20.7991

          k = 0.5385-0.0769 0.6923 (  1084 PWs)   bands (ev):

     2.1046   4.9664   7.4052  11.2181  15.9578  20.5527

          k = 0.4615 0.0000 0.6154 (  1091 PWs)   bands (ev):

     0.7113   6.6737   7.5360  12.0978  16.8146  20.0808

          k =-0.1538 0.7692 0.0000 (  1073 PWs)   bands (ev):

     0.8914   7.8729   9.1021   9.8260  13.6488  14.9997

          k = 0.7692-0.1538 0.9231 (  1077 PWs)   bands (ev):

     2.1001   6.7751   7.2556   9.5957  14.1999  16.6175

          k = 0.6923-0.0769 0.8462 (  1085 PWs)   bands (ev):

     3.5425   5.2841   6.0187   9.8704  14.5827  18.8882

          k = 0.6154 0.0000 0.7692 (  1092 PWs)   bands (ev):

     3.5710   4.9357   5.7800  10.4168  15.1591  21.2511

          k = 0.8462-0.0769 1.0000 (  1086 PWs)   bands (ev):

     2.8368   5.2823   8.7570   9.4827  13.3036  14.6736

          k = 0.7692 0.0000 0.9231 (  1084 PWs)   bands (ev):

     3.8926   4.6743   7.0660   9.4237  14.0296  16.4603

          k =-0.3077 0.6154 0.0000 (  1078 PWs)   bands (ev):

    -0.1952   8.0626   8.8914  11.3191  17.0646  17.9023

          k = 0.6154-0.3077 0.9231 (  1082 PWs)   bands (ev):

     1.0270   6.1914   8.6018  10.2603  17.4546  18.9626

          k = 0.5385-0.2308 0.8462 (  1080 PWs)   bands (ev):

     2.5021   4.2508   8.8519   9.4687  17.6680  18.5802

          k = 0.6923-0.2308 1.0000 (  1078 PWs)   bands (ev):

     1.4317   7.3694   8.1154   8.5092  16.3960  17.3807

          k = 0.6154-0.1538 0.9231 (  1085 PWs)   bands (ev):

     2.8132   5.6633   7.4749   8.1312  17.0079  19.1561

          k = 0.5385-0.0769 0.8462 (  1085 PWs)   bands (ev):

     3.8638   4.4506   6.8746   8.5532  17.4892  20.1076

          k = 0.4615 0.0000 0.7692 (  1085 PWs)   bands (ev):

     2.3280   5.9790   6.8302   9.2749  18.1171  19.4521

          k = 0.6923-0.0769 1.0000 (  1084 PWs)   bands (ev):

     3.3681   5.8066   7.0225   7.8877  16.0579  17.0962

          k = 0.6154 0.0000 0.9231 (  1085 PWs)   bands (ev):

     4.5880   5.2940   5.5942   7.9350  16.8507  19.0722

          k = 0.5385-0.0769 1.0000 (  1081 PWs)   bands (ev):

     4.2483   5.6315   6.3765   6.8205  19.1270  19.3130

     the Fermi energy is     5.7864 ev

!    total energy              =     -39.49130428 Ry
     Harris-Foulkes estimate   =     -39.49130428 Ry
     estimated scf accuracy    <          2.5E-10 Ry

     total all-electron energy =      -485.634086 Ry

     The total energy is the sum of the following terms:

     one-electron contribution =       2.68201857 Ry
     hartree contribution      =       0.00782875 Ry
     xc contribution           =      -2.92442702 Ry
     ewald contribution        =      -5.03216569 Ry
     one-center paw contrib.   =     -34.22452359 Ry
     smearing contrib. (-TS)   =      -0.00003530 Ry

     convergence has been achieved in   5 iterations

     Writing output data file Al.save

     init_run     :      0.86s CPU      0.91s WALL (       1 calls)
     electrons    :     10.05s CPU     10.41s WALL (       1 calls)

     Called by init_run:
     wfcinit      :      0.51s CPU      0.54s WALL (       1 calls)
     potinit      :      0.07s CPU      0.08s WALL (       1 calls)

     Called by electrons:
     c_bands      :      8.10s CPU      8.39s WALL (       6 calls)
     sum_band     :      1.55s CPU      1.60s WALL (       6 calls)
     v_of_rho     :      0.08s CPU      0.08s WALL (       6 calls)
     newd         :      0.03s CPU      0.03s WALL (       6 calls)
     mix_rho      :      0.04s CPU      0.04s WALL (       6 calls)

     Called by c_bands:
     init_us_2    :      0.24s CPU      0.20s WALL (    1092 calls)
     cegterg      :      7.89s CPU      8.18s WALL (     504 calls)

     Called by *egterg:
     h_psi        :      7.42s CPU      7.71s WALL (    1783 calls)
     s_psi        :      0.04s CPU      0.05s WALL (    1783 calls)
     g_psi        :      0.04s CPU      0.04s WALL (    1195 calls)
     cdiaghg      :      0.39s CPU      0.38s WALL (    1615 calls)

     Called by h_psi:
     add_vuspsi   :      0.05s CPU      0.06s WALL (    1783 calls)

     General routines
     calbec       :      0.15s CPU      0.13s WALL (    2287 calls)
     fft          :      0.04s CPU      0.05s WALL (      80 calls)
     fftw         :      8.32s CPU      8.30s WALL (   19320 calls)
     davcio       :      0.03s CPU      0.05s WALL (    1596 calls)

     Parallel routines
     fft_scatter  :      1.07s CPU      1.25s WALL (   19400 calls)

     PAW routines
     PAW_pot      :      0.30s CPU      0.31s WALL (       6 calls)
     PAW_ddot     :      0.04s CPU      0.03s WALL (      22 calls)
     PAW_symme    :      0.00s CPU      0.00s WALL (      12 calls)

     PWSCF        :    11.62s CPU        12.08s WALL


   This run was terminated on:   1:34: 9  12Jul2015            

=------------------------------------------------------------------------------=
   JOB DONE.
=------------------------------------------------------------------------------=
