
     Program PWSCF v.5.0.2 (svn rev. 9656) starts on 12Jul2015 at  2:11:12 

     This program is part of the open-source Quantum ESPRESSO suite
     for quantum simulation of materials; please cite
         "P. Giannozzi et al., J. Phys.:Condens. Matter 21 395502 (2009);
          URL http://www.quantum-espresso.org", 
     in publications or presentations arising from this work. More details at
     http://www.quantum-espresso.org/quote.php

     Parallel version (MPI), running on     4 processors
     R & G space division:  proc/nbgrp/npool/nimage =       4

     Current dimensions of program PWSCF are:
     Max number of different atomic species (ntypx) = 10
     Max number of k-points (npk) =  40000
     Max angular momentum in pseudopotentials (lmaxx) =  3
     Waiting for input...
     Reading input from standard input
               file Al.pbe-n-kjpaw_psl.0.1.UPF: wavefunction(s)  3S renormalized

     Subspace diagonalization in iterative solution of the eigenvalue problem:
     a serial algorithm will be used


     Parallelization info
     --------------------
     sticks:   dense  smooth     PW     G-vecs:    dense   smooth      PW
     Min         109     109     37                 1545     1545     284
     Max         110     110     38                 1546     1546     285
     Sum         439     439    151                 6183     6183    1139



     bravais-lattice index     =            2
     lattice parameter (alat)  =       7.6300  a.u.
     unit-cell volume          =     111.0487 (a.u.)^3
     number of atoms/cell      =            1
     number of atomic types    =            1
     number of electrons       =         3.00
     number of Kohn-Sham states=            6
     kinetic-energy cutoff     =      55.0000  Ry
     charge density cutoff     =     220.0000  Ry
     convergence threshold     =      1.0E-07
     mixing beta               =       0.7000
     number of iterations used =            8  plain     mixing
     Exchange-correlation      =  SLA  PW   PBX  PBC ( 1 4 3 4 0)
     EXX-fraction              =        0.00

     celldm(1)=   7.630000  celldm(2)=   0.000000  celldm(3)=   0.000000
     celldm(4)=   0.000000  celldm(5)=   0.000000  celldm(6)=   0.000000

     crystal axes: (cart. coord. in units of alat)
               a(1) = (  -0.500000   0.000000   0.500000 )  
               a(2) = (   0.000000   0.500000   0.500000 )  
               a(3) = (  -0.500000   0.500000   0.000000 )  

     reciprocal axes: (cart. coord. in units 2 pi/alat)
               b(1) = ( -1.000000 -1.000000  1.000000 )  
               b(2) = (  1.000000  1.000000  1.000000 )  
               b(3) = ( -1.000000  1.000000 -1.000000 )  


     PseudoPot. # 1 for Al read from file:
     ./Al.pbe-n-kjpaw_psl.0.1.UPF
     MD5 check sum: 023d9faf819c76fc4df1f064efe7b7b2
     Pseudo is Projector augmented-wave + core cor, Zval =  3.0
     Generated using "atomic" code by A. Dal Corso  v.5.0.2 svn rev. 9415
     Shape of augmentation charge: PSQ
     Using radial grid of 1135 points,  4 beta functions with: 
                l(1) =   0
                l(2) =   0
                l(3) =   1
                l(4) =   1
     Q(r) pseudized with 0 coefficients 


     atomic species   valence    mass     pseudopotential
        Al             3.00    26.98154     Al( 1.00)

     48 Sym. Ops., with inversion, found



   Cartesian axes

     site n.     atom                  positions (alat units)
         1           Al  tau(   1) = (   0.0000000   0.0000000   0.0000000  )

     number of k points=    20  gaussian smearing, width (Ry)=  0.0030
                       cart. coord. in units 2pi/alat
        k(    1) = (   0.0000000   0.0000000   0.0000000), wk =   0.0058309
        k(    2) = (  -0.1428571   0.1428571  -0.1428571), wk =   0.0466472
        k(    3) = (  -0.2857143   0.2857143  -0.2857143), wk =   0.0466472
        k(    4) = (  -0.4285714   0.4285714  -0.4285714), wk =   0.0466472
        k(    5) = (   0.0000000   0.2857143   0.0000000), wk =   0.0349854
        k(    6) = (  -0.1428571   0.4285714  -0.1428571), wk =   0.1399417
        k(    7) = (  -0.2857143   0.5714286  -0.2857143), wk =   0.1399417
        k(    8) = (   0.5714286  -0.2857143   0.5714286), wk =   0.1399417
        k(    9) = (   0.4285714  -0.1428571   0.4285714), wk =   0.1399417
        k(   10) = (   0.2857143  -0.0000000   0.2857143), wk =   0.0699708
        k(   11) = (   0.0000000   0.5714286   0.0000000), wk =   0.0349854
        k(   12) = (  -0.1428571   0.7142857  -0.1428571), wk =   0.1399417
        k(   13) = (   0.7142857  -0.1428571   0.7142857), wk =   0.1399417
        k(   14) = (   0.5714286   0.0000000   0.5714286), wk =   0.0699708
        k(   15) = (   0.0000000   0.8571429   0.0000000), wk =   0.0349854
        k(   16) = (   0.8571429  -0.0000000   0.8571429), wk =   0.0699708
        k(   17) = (  -0.2857143   0.5714286   0.0000000), wk =   0.1399417
        k(   18) = (   0.5714286  -0.2857143   0.8571429), wk =   0.2798834
        k(   19) = (   0.7142857  -0.1428571   1.0000000), wk =   0.1399417
        k(   20) = (   0.5714286   0.0000000   0.8571429), wk =   0.1399417

     Dense  grid:     6183 G-vectors     FFT dimensions: (  25,  25,  25)

     Largest allocated arrays     est. size (Mb)     dimensions
        Kohn-Sham Wavefunctions         0.02 Mb     (    193,    6)
        NL pseudopotentials             0.02 Mb     (    193,    8)
        Each V/rho on FFT grid          0.07 Mb     (   4375)
        Each G-vector array             0.01 Mb     (   1546)
        G-vector shells                 0.00 Mb     (    110)
     Largest temporary arrays     est. size (Mb)     dimensions
        Auxiliary wavefunctions         0.07 Mb     (    193,   24)
        Each subspace H/S matrix        0.01 Mb     (  24,  24)
        Each <psi_i|beta_j> matrix      0.00 Mb     (      8,    6)
        Arrays for rho mixing           0.53 Mb     (   4375,   8)

     Check: negative/imaginary core charge=   -0.000004    0.000000

     Initial potential from superposition of free atoms

     starting charge    2.99771, renormalised to    3.00000
     Starting wfc are    4 randomized atomic wfcs
     Checking if some PAW data can be deallocated... 

     total cpu time spent up to now is        0.8 secs

     per-process dynamical memory:     9.0 Mb

     Self-consistent Calculation

     iteration #  1     ecut=    55.00 Ry     beta=0.70
     Davidson diagonalization with overlap
     ethr =  1.00E-02,  avg # of iterations =  5.0

     Threshold (ethr) on eigenvalues was too large:
     Diagonalizing with lowered threshold

     Davidson diagonalization with overlap
     ethr =  2.05E-04,  avg # of iterations =  2.4

     total cpu time spent up to now is        1.2 secs

     total energy              =     -39.50638219 Ry
     Harris-Foulkes estimate   =     -39.50774755 Ry
     estimated scf accuracy    <       0.00582809 Ry

     iteration #  2     ecut=    55.00 Ry     beta=0.70
     Davidson diagonalization with overlap
     ethr =  1.94E-04,  avg # of iterations =  1.0

     total cpu time spent up to now is        1.4 secs

     total energy              =     -39.50634035 Ry
     Harris-Foulkes estimate   =     -39.50644742 Ry
     estimated scf accuracy    <       0.00043547 Ry

     iteration #  3     ecut=    55.00 Ry     beta=0.70
     Davidson diagonalization with overlap
     ethr =  1.45E-05,  avg # of iterations =  1.7

     total cpu time spent up to now is        1.6 secs

     total energy              =     -39.50636098 Ry
     Harris-Foulkes estimate   =     -39.50636154 Ry
     estimated scf accuracy    <       0.00000137 Ry

     iteration #  4     ecut=    55.00 Ry     beta=0.70
     Davidson diagonalization with overlap
     ethr =  4.55E-08,  avg # of iterations =  2.9

     total cpu time spent up to now is        1.8 secs

     End of self-consistent calculation

          k = 0.0000 0.0000 0.0000 (   749 PWs)   bands (ev):

    -3.2217  20.5740  20.5740  22.0521  22.0521  22.0521

          k =-0.1429 0.1429-0.1429 (   767 PWs)   bands (ev):

    -2.6667  15.5414  19.4782  19.4782  22.6148  23.8519

          k =-0.2857 0.2857-0.2857 (   769 PWs)   bands (ev):

    -1.0145  10.0831  18.7600  18.7600  22.0815  22.2649

          k =-0.4286 0.4286-0.4286 (   769 PWs)   bands (ev):

     1.6977   5.4272  18.9434  18.9434  20.0595  20.0595

          k = 0.0000 0.2857 0.0000 (   769 PWs)   bands (ev):

    -2.4822  17.4647  17.4647  17.6700  20.6271  21.6583

          k =-0.1429 0.4286-0.1429 (   765 PWs)   bands (ev):

    -1.1972  12.2259  16.3776  17.9085  18.3357  22.2141

          k =-0.2857 0.5714-0.2857 (   771 PWs)   bands (ev):

     1.1587   7.3322  15.8116  16.2327  17.9760  24.0094

          k = 0.5714-0.2857 0.5714 (   768 PWs)   bands (ev):

     3.2931   4.5517  14.3251  17.0333  18.8747  22.6197

          k = 0.4286-0.1429 0.4286 (   767 PWs)   bands (ev):

     0.2575   8.8535  13.8544  18.7751  20.7320  22.1219

          k = 0.2857-0.0000 0.2857 (   771 PWs)   bands (ev):

    -1.7465  13.5230  14.8615  21.3575  22.0107  23.3750

          k = 0.0000 0.5714 0.0000 (   773 PWs)   bands (ev):

    -0.2869  14.4961  14.8373  14.9558  14.9558  18.4766

          k =-0.1429 0.7143-0.1429 (   770 PWs)   bands (ev):

     1.6928  10.1644  11.6560  14.4870  15.9734  20.4970

          k = 0.7143-0.1429 0.7143 (   764 PWs)   bands (ev):

     4.6662   5.9437   9.8092  14.9669  16.6784  25.0600

          k = 0.5714 0.0000 0.5714 (   762 PWs)   bands (ev):

     2.5887   8.0663   9.5763  16.3976  18.2889  26.6243

          k = 0.0000 0.8571 0.0000 (   761 PWs)   bands (ev):

     3.2698   8.3884  13.3828  13.6975  13.6975  17.1880

          k = 0.8571-0.0000 0.8571 (   764 PWs)   bands (ev):

     5.3429   6.6868   9.5233  13.8572  15.2704  19.8812

          k =-0.2857 0.5714 0.0000 (   769 PWs)   bands (ev):

     0.4377  10.7974  12.2535  15.2092  20.3157  22.0558

          k = 0.5714-0.2857 0.8571 (   760 PWs)   bands (ev):

     3.1172   6.7795  11.8061  13.0754  21.2285  22.5006

          k = 0.7143-0.1429 1.0000 (   756 PWs)   bands (ev):

     3.9736   9.0424   9.4317  11.0144  19.0077  20.9740

          k = 0.5714 0.0000 0.8571 (   757 PWs)   bands (ev):

     6.0532   6.7033   8.1612  11.2326  20.6439  25.0721

     the Fermi energy is     8.0752 ev

!    total energy              =     -39.50636246 Ry
     Harris-Foulkes estimate   =     -39.50636251 Ry
     estimated scf accuracy    <       0.00000008 Ry

     total all-electron energy =      -485.649144 Ry

     The total energy is the sum of the following terms:

     one-electron contribution =       3.16444844 Ry
     hartree contribution      =       0.00632326 Ry
     xc contribution           =      -3.03175601 Ry
     ewald contribution        =      -5.40809419 Ry
     one-center paw contrib.   =     -34.23722613 Ry
     smearing contrib. (-TS)   =      -0.00005783 Ry

     convergence has been achieved in   4 iterations

     Writing output data file Al.save

     init_run     :      0.35s CPU      0.38s WALL (       1 calls)
     electrons    :      1.02s CPU      1.07s WALL (       1 calls)

     Called by init_run:
     wfcinit      :      0.04s CPU      0.06s WALL (       1 calls)
     potinit      :      0.06s CPU      0.07s WALL (       1 calls)

     Called by electrons:
     c_bands      :      0.62s CPU      0.66s WALL (       5 calls)
     sum_band     :      0.13s CPU      0.13s WALL (       5 calls)
     v_of_rho     :      0.03s CPU      0.03s WALL (       5 calls)
     newd         :      0.02s CPU      0.01s WALL (       5 calls)
     mix_rho      :      0.02s CPU      0.02s WALL (       5 calls)

     Called by c_bands:
     init_us_2    :      0.03s CPU      0.03s WALL (     220 calls)
     cegterg      :      0.59s CPU      0.63s WALL (     100 calls)

     Called by *egterg:
     h_psi        :      0.48s CPU      0.51s WALL (     378 calls)
     s_psi        :      0.01s CPU      0.01s WALL (     378 calls)
     g_psi        :      0.01s CPU      0.01s WALL (     258 calls)
     cdiaghg      :      0.08s CPU      0.08s WALL (     338 calls)

     Called by h_psi:
     add_vuspsi   :      0.01s CPU      0.01s WALL (     378 calls)

     General routines
     calbec       :      0.01s CPU      0.02s WALL (     478 calls)
     fft          :      0.01s CPU      0.01s WALL (      67 calls)
     fftw         :      0.47s CPU      0.50s WALL (    4000 calls)
     davcio       :      0.00s CPU      0.01s WALL (     320 calls)

     Parallel routines
     fft_scatter  :      0.16s CPU      0.18s WALL (    4067 calls)

     PAW routines
     PAW_pot      :      0.25s CPU      0.26s WALL (       5 calls)
     PAW_ddot     :      0.02s CPU      0.02s WALL (      12 calls)
     PAW_symme    :      0.00s CPU      0.00s WALL (      10 calls)

     PWSCF        :     1.91s CPU         2.02s WALL


   This run was terminated on:   2:11:14  12Jul2015            

=------------------------------------------------------------------------------=
   JOB DONE.
=------------------------------------------------------------------------------=
