
     Program PWSCF v.5.0.2 (svn rev. 9656) starts on 12Jul2015 at  1:32: 0 

     This program is part of the open-source Quantum ESPRESSO suite
     for quantum simulation of materials; please cite
         "P. Giannozzi et al., J. Phys.:Condens. Matter 21 395502 (2009);
          URL http://www.quantum-espresso.org", 
     in publications or presentations arising from this work. More details at
     http://www.quantum-espresso.org/quote.php

     Parallel version (MPI), running on     4 processors
     R & G space division:  proc/nbgrp/npool/nimage =       4

     Current dimensions of program PWSCF are:
     Max number of different atomic species (ntypx) = 10
     Max number of k-points (npk) =  40000
     Max angular momentum in pseudopotentials (lmaxx) =  3
     Waiting for input...
     Reading input from standard input
               file Al.pbe-n-kjpaw_psl.0.1.UPF: wavefunction(s)  3S renormalized

     Subspace diagonalization in iterative solution of the eigenvalue problem:
     a serial algorithm will be used


     Parallelization info
     --------------------
     sticks:   dense  smooth     PW     G-vecs:    dense   smooth      PW
     Min         108     108     34                 1489     1489     266
     Max         109     109     35                 1492     1492     267
     Sum         433     433    139                 5961     5961    1067



     bravais-lattice index     =            2
     lattice parameter (alat)  =       7.2000  a.u.
     unit-cell volume          =      93.3120 (a.u.)^3
     number of atoms/cell      =            1
     number of atomic types    =            1
     number of electrons       =         3.00
     number of Kohn-Sham states=            6
     kinetic-energy cutoff     =      60.0000  Ry
     charge density cutoff     =     240.0000  Ry
     convergence threshold     =      1.0E-07
     mixing beta               =       0.7000
     number of iterations used =            8  plain     mixing
     Exchange-correlation      =  SLA  PW   PBX  PBC ( 1 4 3 4 0)
     EXX-fraction              =        0.00

     celldm(1)=   7.200000  celldm(2)=   0.000000  celldm(3)=   0.000000
     celldm(4)=   0.000000  celldm(5)=   0.000000  celldm(6)=   0.000000

     crystal axes: (cart. coord. in units of alat)
               a(1) = (  -0.500000   0.000000   0.500000 )  
               a(2) = (   0.000000   0.500000   0.500000 )  
               a(3) = (  -0.500000   0.500000   0.000000 )  

     reciprocal axes: (cart. coord. in units 2 pi/alat)
               b(1) = ( -1.000000 -1.000000  1.000000 )  
               b(2) = (  1.000000  1.000000  1.000000 )  
               b(3) = ( -1.000000  1.000000 -1.000000 )  


     PseudoPot. # 1 for Al read from file:
     ./Al.pbe-n-kjpaw_psl.0.1.UPF
     MD5 check sum: 023d9faf819c76fc4df1f064efe7b7b2
     Pseudo is Projector augmented-wave + core cor, Zval =  3.0
     Generated using "atomic" code by A. Dal Corso  v.5.0.2 svn rev. 9415
     Shape of augmentation charge: PSQ
     Using radial grid of 1135 points,  4 beta functions with: 
                l(1) =   0
                l(2) =   0
                l(3) =   1
                l(4) =   1
     Q(r) pseudized with 0 coefficients 


     atomic species   valence    mass     pseudopotential
        Al             3.00    26.98154     Al( 1.00)

     48 Sym. Ops., with inversion, found



   Cartesian axes

     site n.     atom                  positions (alat units)
         1           Al  tau(   1) = (   0.0000000   0.0000000   0.0000000  )

     number of k points=    84  gaussian smearing, width (Ry)=  0.0030
                       cart. coord. in units 2pi/alat
        k(    1) = (   0.0000000   0.0000000   0.0000000), wk =   0.0009103
        k(    2) = (  -0.0769231   0.0769231  -0.0769231), wk =   0.0072827
        k(    3) = (  -0.1538462   0.1538462  -0.1538462), wk =   0.0072827
        k(    4) = (  -0.2307692   0.2307692  -0.2307692), wk =   0.0072827
        k(    5) = (  -0.3076923   0.3076923  -0.3076923), wk =   0.0072827
        k(    6) = (  -0.3846154   0.3846154  -0.3846154), wk =   0.0072827
        k(    7) = (  -0.4615385   0.4615385  -0.4615385), wk =   0.0072827
        k(    8) = (   0.0000000   0.1538462   0.0000000), wk =   0.0054620
        k(    9) = (  -0.0769231   0.2307692  -0.0769231), wk =   0.0218480
        k(   10) = (  -0.1538462   0.3076923  -0.1538462), wk =   0.0218480
        k(   11) = (  -0.2307692   0.3846154  -0.2307692), wk =   0.0218480
        k(   12) = (  -0.3076923   0.4615385  -0.3076923), wk =   0.0218480
        k(   13) = (  -0.3846154   0.5384615  -0.3846154), wk =   0.0218480
        k(   14) = (   0.5384615  -0.3846154   0.5384615), wk =   0.0218480
        k(   15) = (   0.4615385  -0.3076923   0.4615385), wk =   0.0218480
        k(   16) = (   0.3846154  -0.2307692   0.3846154), wk =   0.0218480
        k(   17) = (   0.3076923  -0.1538462   0.3076923), wk =   0.0218480
        k(   18) = (   0.2307692  -0.0769231   0.2307692), wk =   0.0218480
        k(   19) = (   0.1538462   0.0000000   0.1538462), wk =   0.0109240
        k(   20) = (   0.0000000   0.3076923   0.0000000), wk =   0.0054620
        k(   21) = (  -0.0769231   0.3846154  -0.0769231), wk =   0.0218480
        k(   22) = (  -0.1538462   0.4615385  -0.1538462), wk =   0.0218480
        k(   23) = (  -0.2307692   0.5384615  -0.2307692), wk =   0.0218480
        k(   24) = (  -0.3076923   0.6153846  -0.3076923), wk =   0.0218480
        k(   25) = (   0.6153846  -0.3076923   0.6153846), wk =   0.0218480
        k(   26) = (   0.5384615  -0.2307692   0.5384615), wk =   0.0218480
        k(   27) = (   0.4615385  -0.1538462   0.4615385), wk =   0.0218480
        k(   28) = (   0.3846154  -0.0769231   0.3846154), wk =   0.0218480
        k(   29) = (   0.3076923   0.0000000   0.3076923), wk =   0.0109240
        k(   30) = (   0.0000000   0.4615385   0.0000000), wk =   0.0054620
        k(   31) = (  -0.0769231   0.5384615  -0.0769231), wk =   0.0218480
        k(   32) = (  -0.1538462   0.6153846  -0.1538462), wk =   0.0218480
        k(   33) = (  -0.2307692   0.6923077  -0.2307692), wk =   0.0218480
        k(   34) = (   0.6923077  -0.2307692   0.6923077), wk =   0.0218480
        k(   35) = (   0.6153846  -0.1538462   0.6153846), wk =   0.0218480
        k(   36) = (   0.5384615  -0.0769231   0.5384615), wk =   0.0218480
        k(   37) = (   0.4615385   0.0000000   0.4615385), wk =   0.0109240
        k(   38) = (   0.0000000   0.6153846   0.0000000), wk =   0.0054620
        k(   39) = (  -0.0769231   0.6923077  -0.0769231), wk =   0.0218480
        k(   40) = (  -0.1538462   0.7692308  -0.1538462), wk =   0.0218480
        k(   41) = (   0.7692308  -0.1538462   0.7692308), wk =   0.0218480
        k(   42) = (   0.6923077  -0.0769231   0.6923077), wk =   0.0218480
        k(   43) = (   0.6153846   0.0000000   0.6153846), wk =   0.0109240
        k(   44) = (   0.0000000   0.7692308   0.0000000), wk =   0.0054620
        k(   45) = (  -0.0769231   0.8461538  -0.0769231), wk =   0.0218480
        k(   46) = (   0.8461538  -0.0769231   0.8461538), wk =   0.0218480
        k(   47) = (   0.7692308   0.0000000   0.7692308), wk =   0.0109240
        k(   48) = (   0.0000000   0.9230769   0.0000000), wk =   0.0054620
        k(   49) = (   0.9230769   0.0000000   0.9230769), wk =   0.0109240
        k(   50) = (  -0.1538462   0.3076923   0.0000000), wk =   0.0218480
        k(   51) = (  -0.2307692   0.3846154  -0.0769231), wk =   0.0436959
        k(   52) = (  -0.3076923   0.4615385  -0.1538462), wk =   0.0436959
        k(   53) = (  -0.3846154   0.5384615  -0.2307692), wk =   0.0436959
        k(   54) = (   0.5384615  -0.3846154   0.6923077), wk =   0.0436959
        k(   55) = (  -0.1538462   0.4615385   0.0000000), wk =   0.0218480
        k(   56) = (  -0.2307692   0.5384615  -0.0769231), wk =   0.0436959
        k(   57) = (  -0.3076923   0.6153846  -0.1538462), wk =   0.0436959
        k(   58) = (   0.6153846  -0.3076923   0.7692308), wk =   0.0436959
        k(   59) = (   0.5384615  -0.2307692   0.6923077), wk =   0.0436959
        k(   60) = (   0.4615385  -0.1538462   0.6153846), wk =   0.0436959
        k(   61) = (   0.3846154  -0.0769231   0.5384615), wk =   0.0436959
        k(   62) = (   0.3076923   0.0000000   0.4615385), wk =   0.0218480
        k(   63) = (  -0.1538462   0.6153846   0.0000000), wk =   0.0218480
        k(   64) = (  -0.2307692   0.6923077  -0.0769231), wk =   0.0436959
        k(   65) = (   0.6923077  -0.2307692   0.8461538), wk =   0.0436959
        k(   66) = (   0.6153846  -0.1538462   0.7692308), wk =   0.0436959
        k(   67) = (   0.5384615  -0.0769231   0.6923077), wk =   0.0436959
        k(   68) = (   0.4615385   0.0000000   0.6153846), wk =   0.0218480
        k(   69) = (  -0.1538462   0.7692308   0.0000000), wk =   0.0218480
        k(   70) = (   0.7692308  -0.1538462   0.9230769), wk =   0.0436959
        k(   71) = (   0.6923077  -0.0769231   0.8461538), wk =   0.0436959
        k(   72) = (   0.6153846   0.0000000   0.7692308), wk =   0.0218480
        k(   73) = (   0.8461538  -0.0769231   1.0000000), wk =   0.0218480
        k(   74) = (   0.7692308   0.0000000   0.9230769), wk =   0.0218480
        k(   75) = (  -0.3076923   0.6153846   0.0000000), wk =   0.0218480
        k(   76) = (   0.6153846  -0.3076923   0.9230769), wk =   0.0436959
        k(   77) = (   0.5384615  -0.2307692   0.8461538), wk =   0.0436959
        k(   78) = (   0.6923077  -0.2307692   1.0000000), wk =   0.0218480
        k(   79) = (   0.6153846  -0.1538462   0.9230769), wk =   0.0436959
        k(   80) = (   0.5384615  -0.0769231   0.8461538), wk =   0.0436959
        k(   81) = (   0.4615385   0.0000000   0.7692308), wk =   0.0218480
        k(   82) = (   0.6923077  -0.0769231   1.0000000), wk =   0.0218480
        k(   83) = (   0.6153846   0.0000000   0.9230769), wk =   0.0218480
        k(   84) = (   0.5384615  -0.0769231   1.0000000), wk =   0.0218480

     Dense  grid:     5961 G-vectors     FFT dimensions: (  25,  25,  25)

     Largest allocated arrays     est. size (Mb)     dimensions
        Kohn-Sham Wavefunctions         0.02 Mb     (    188,    6)
        NL pseudopotentials             0.02 Mb     (    188,    8)
        Each V/rho on FFT grid          0.07 Mb     (   4375)
        Each G-vector array             0.01 Mb     (   1491)
        G-vector shells                 0.00 Mb     (    107)
     Largest temporary arrays     est. size (Mb)     dimensions
        Auxiliary wavefunctions         0.07 Mb     (    188,   24)
        Each subspace H/S matrix        0.01 Mb     (  24,  24)
        Each <psi_i|beta_j> matrix      0.00 Mb     (      8,    6)
        Arrays for rho mixing           0.53 Mb     (   4375,   8)

     Initial potential from superposition of free atoms

     starting charge    2.99771, renormalised to    3.00000
     Starting wfc are    4 randomized atomic wfcs
     Checking if some PAW data can be deallocated... 

     total cpu time spent up to now is        0.9 secs

     per-process dynamical memory:     8.9 Mb

     Self-consistent Calculation

     iteration #  1     ecut=    60.00 Ry     beta=0.70
     Davidson diagonalization with overlap
     ethr =  1.00E-02,  avg # of iterations =  4.8

     Threshold (ethr) on eigenvalues was too large:
     Diagonalizing with lowered threshold

     Davidson diagonalization with overlap
     ethr =  1.92E-04,  avg # of iterations =  2.0

     total cpu time spent up to now is        2.5 secs

     total energy              =     -39.49246221 Ry
     Harris-Foulkes estimate   =     -39.49375298 Ry
     estimated scf accuracy    <       0.00551871 Ry

     iteration #  2     ecut=    60.00 Ry     beta=0.70
     Davidson diagonalization with overlap
     ethr =  1.84E-04,  avg # of iterations =  1.0

     total cpu time spent up to now is        3.0 secs

     total energy              =     -39.49239654 Ry
     Harris-Foulkes estimate   =     -39.49250548 Ry
     estimated scf accuracy    <       0.00043418 Ry

     iteration #  3     ecut=    60.00 Ry     beta=0.70
     Davidson diagonalization with overlap
     ethr =  1.45E-05,  avg # of iterations =  1.8

     total cpu time spent up to now is        3.6 secs

     total energy              =     -39.49240799 Ry
     Harris-Foulkes estimate   =     -39.49240823 Ry
     estimated scf accuracy    <       0.00000070 Ry

     iteration #  4     ecut=    60.00 Ry     beta=0.70
     Davidson diagonalization with overlap
     ethr =  2.34E-08,  avg # of iterations =  3.1

     total cpu time spent up to now is        4.2 secs

     End of self-consistent calculation

          k = 0.0000 0.0000 0.0000 (   725 PWs)   bands (ev):

    -2.5624  23.5125  23.5125  23.5125  26.3975  26.3975

          k =-0.0769 0.0769-0.0769 (   731 PWs)   bands (ev):

    -2.3817  21.1480  23.1651  23.1651  26.6632  27.0377

          k =-0.1538 0.1538-0.1538 (   724 PWs)   bands (ev):

    -1.8412  17.7548  22.5820  22.5820  26.3329  28.3143

          k =-0.2308 0.2308-0.2308 (   733 PWs)   bands (ev):

    -0.9459  14.4566  22.1347  22.1347  25.9807  26.8276

          k =-0.3077 0.3077-0.3077 (   748 PWs)   bands (ev):

     0.2963  11.3817  21.9162  21.9162  25.3490  25.3490

          k =-0.3846 0.3846-0.3846 (   745 PWs)   bands (ev):

     1.8731   8.5747  21.9378  21.9378  24.1723  24.1724

          k =-0.4615 0.4615-0.4615 (   736 PWs)   bands (ev):

     3.7498   6.0811  22.1257  22.1257  23.4022  23.4022

          k = 0.0000 0.1538 0.0000 (   729 PWs)   bands (ev):

    -2.3215  22.0477  22.1536  22.1536  25.8017  28.1262

          k =-0.0769 0.2308-0.0769 (   726 PWs)   bands (ev):

    -1.9011  18.9411  21.3070  22.4197  26.0025  26.7929

          k =-0.1538 0.3077-0.1538 (   735 PWs)   bands (ev):

    -1.1244  15.6428  20.7108  22.1476  24.8799  27.5350

          k =-0.2308 0.3846-0.2308 (   733 PWs)   bands (ev):

     0.0018  12.5087  20.3885  21.7860  23.3946  27.6494

          k =-0.3077 0.4615-0.3077 (   740 PWs)   bands (ev):

     1.4667   9.6195  20.3493  21.2508  22.5810  26.3602

          k =-0.3846 0.5385-0.3846 (   741 PWs)   bands (ev):

     3.2498   7.0180  20.4441  20.5982  22.6157  25.3371

          k = 0.5385-0.3846 0.5385 (   733 PWs)   bands (ev):

     4.5224   5.5402  19.7581  21.1382  23.1296  24.5982

          k = 0.4615-0.3077 0.4615 (   740 PWs)   bands (ev):

     2.6228   7.8488  19.3334  21.9660  23.9831  24.1508

          k = 0.3846-0.2308 0.3846 (   741 PWs)   bands (ev):

     0.9416  10.5491  19.2007  23.0346  24.0343  25.1291

          k = 0.3077-0.1538 0.3077 (   736 PWs)   bands (ev):

    -0.4119  13.5168  19.3714  23.7910  24.7693  26.4850

          k = 0.2308-0.0769 0.2308 (   731 PWs)   bands (ev):

    -1.4225  16.6813  19.8680  24.0582  26.4120  27.2361

          k = 0.1538 0.0000 0.1538 (   729 PWs)   bands (ev):

    -2.0811  19.6521  20.9528  23.9828  26.7300  27.2624

          k = 0.0000 0.3077 0.0000 (   729 PWs)   bands (ev):

    -1.6018  19.8991  20.3012  20.3012  23.8955  25.0995

          k =-0.0769 0.3846-0.0769 (   730 PWs)   bands (ev):

    -0.9458  17.0150  19.5807  20.6358  22.3406  24.8688

          k =-0.1538 0.4615-0.1538 (   732 PWs)   bands (ev):

     0.0607  13.9018  19.1502  20.0250  21.3032  26.3082

          k =-0.2308 0.5385-0.2308 (   735 PWs)   bands (ev):

     1.4083  10.9649  18.8067  19.0120  21.0546  28.4512

          k =-0.3077 0.6154-0.3077 (   732 PWs)   bands (ev):

     3.0813   8.2843  17.6946  19.1684  21.2137  27.7782

          k = 0.6154-0.3077 0.6154 (   734 PWs)   bands (ev):

     4.9654   5.9935  16.8474  19.6227  21.7110  26.9356

          k = 0.5385-0.2308 0.5385 (   735 PWs)   bands (ev):

     3.7059   7.4497  16.3052  20.3787  22.5315  26.3588

          k = 0.4615-0.1538 0.4615 (   736 PWs)   bands (ev):

     1.9313  10.0116  16.0949  21.4397  23.6555  26.0301

          k = 0.3846-0.0769 0.3846 (   735 PWs)   bands (ev):

     0.4726  12.7853  16.2785  22.8065  25.0498  25.8594

          k = 0.3077 0.0000 0.3077 (   740 PWs)   bands (ev):

    -0.6489  15.3242  17.2571  24.4709  25.3890  26.6453

          k = 0.0000 0.4615 0.0000 (   729 PWs)   bands (ev):

    -0.4119  18.0536  18.7480  18.7480  19.9077  23.4142

          k =-0.0769 0.5385-0.0769 (   730 PWs)   bands (ev):

     0.4725  15.4745  17.9431  18.2120  19.4123  23.5870

          k =-0.1538 0.6154-0.1538 (   731 PWs)   bands (ev):

     1.6986  12.5677  16.3957  17.9720  19.6478  25.2409

          k =-0.2308 0.6923-0.2308 (   737 PWs)   bands (ev):

     3.2527   9.8455  15.1128  18.0282  19.8626  27.6193

          k = 0.6923-0.2308 0.6923 (   732 PWs)   bands (ev):

     5.0936   7.4068  14.1326  18.3821  20.3194  29.5929

          k = 0.6154-0.1538 0.6154 (   731 PWs)   bands (ev):

     5.1019   7.3756  13.4892  19.0361  21.0814  28.9275

          k = 0.5385-0.0769 0.5385 (   734 PWs)   bands (ev):

     3.2553   9.7141  13.2600  19.9929  22.1499  28.4608

          k = 0.4615 0.0000 0.4615 (   730 PWs)   bands (ev):

     1.6994  11.8259  13.8997  21.2528  23.4970  27.7131

          k = 0.0000 0.6154 0.0000 (   721 PWs)   bands (ev):

     1.2330  15.9192  16.6407  17.5731  17.5731  22.1824

          k =-0.0769 0.6923-0.0769 (   732 PWs)   bands (ev):

     2.3341  13.9746  14.5810  17.2317  18.2346  22.5831

          k =-0.1538 0.7692-0.1538 (   730 PWs)   bands (ev):

     3.7615  11.5675  12.9016  17.1869  18.6942  24.4756

          k = 0.7692-0.1538 0.7692 (   728 PWs)   bands (ev):

     5.4828   9.1301  11.7568  17.4391  19.1546  27.0817

          k = 0.6923-0.0769 0.6923 (   725 PWs)   bands (ev):

     6.7411   7.6036  11.0516  17.9897  19.8602  29.9645

          k = 0.6154 0.0000 0.6154 (   728 PWs)   bands (ev):

     4.8962   9.2107  11.2385  18.8407  20.8628  30.9087

          k = 0.0000 0.7692 0.0000 (   733 PWs)   bands (ev):

     3.3058  12.2603  15.6908  16.7896  16.7896  21.3078

          k =-0.0769 0.8462-0.0769 (   730 PWs)   bands (ev):

     4.5941  10.6799  13.7677  16.6441  17.5584  21.9489

          k = 0.8462-0.0769 0.8462 (   731 PWs)   bands (ev):

     6.1354   9.4347  11.4287  16.7950  18.2203  24.0793

          k = 0.7692 0.0000 0.7692 (   730 PWs)   bands (ev):

     7.4757   8.4805   9.7949  17.2430  18.9172  26.8972

          k = 0.0000 0.9231 0.0000 (   740 PWs)   bands (ev):

     5.6961   9.0736  15.2141  16.3983  16.3983  20.8540

          k = 0.9231 0.0000 0.9231 (   736 PWs)   bands (ev):

     6.6115   8.2732  13.5381  16.4485  17.3338  21.7326

          k =-0.1538 0.3077 0.0000 (   730 PWs)   bands (ev):

    -1.3628  17.5026  19.1165  23.0120  24.5668  25.9945

          k =-0.2308 0.3846-0.0769 (   735 PWs)   bands (ev):

    -0.4711  14.7379  18.0866  22.6848  23.4518  27.0414

          k =-0.3077 0.4615-0.1538 (   731 PWs)   bands (ev):

     0.7659  11.7671  17.7332  21.1775  23.4413  26.9181

          k =-0.3846 0.5385-0.2308 (   735 PWs)   bands (ev):

     2.3357   8.9986  17.7191  19.9448  23.5950  25.6787

          k = 0.5385-0.3846 0.6923 (   736 PWs)   bands (ev):

     4.2017   6.5267  17.9285  19.1114  24.0053  24.6997

          k =-0.1538 0.4615 0.0000 (   731 PWs)   bands (ev):

    -0.1754  15.7544  17.4668  20.3804  21.4607  24.7220

          k =-0.2308 0.5385-0.0769 (   734 PWs)   bands (ev):

     0.9414  13.2013  16.5400  18.7658  22.0405  25.9472

          k =-0.3077 0.6154-0.1538 (   731 PWs)   bands (ev):

     2.3932  10.4368  16.2114  17.5505  22.3021  27.9285

          k = 0.6154-0.3077 0.7692 (   732 PWs)   bands (ev):

     4.1574   7.8882  15.7534  17.1445  22.6863  27.2366

          k = 0.5385-0.2308 0.6923 (   728 PWs)   bands (ev):

     5.4104   6.4330  15.1463  17.5416  23.3256  26.4475

          k = 0.4615-0.1538 0.6154 (   733 PWs)   bands (ev):

     3.5389   8.6835  14.7642  18.3772  24.2469  25.9006

          k = 0.3846-0.0769 0.5385 (   735 PWs)   bands (ev):

     1.8734  11.2487  14.7614  19.5538  25.4054  25.5419

          k = 0.3077 0.0000 0.4615 (   737 PWs)   bands (ev):

     0.5313  13.5738  15.5839  21.0365  24.8173  26.7646

          k =-0.1538 0.6154 0.0000 (   729 PWs)   bands (ev):

     1.4661  14.4335  15.6704  16.9344  20.2163  23.6069

          k =-0.2308 0.6923-0.0769 (   734 PWs)   bands (ev):

     2.7948  12.0748  14.4263  16.0237  20.9949  25.0434

          k = 0.6923-0.2308 0.8462 (   729 PWs)   bands (ev):

     4.4393   9.5307  13.3864  15.9190  21.4722  27.4218

          k = 0.6154-0.1538 0.7692 (   730 PWs)   bands (ev):

     6.2794   7.2973  12.5663  16.3086  22.0776  29.1238

          k = 0.5385-0.0769 0.6923 (   728 PWs)   bands (ev):

     5.0599   8.6175  12.1267  17.0683  22.9370  28.4923

          k = 0.4615 0.0000 0.6154 (   733 PWs)   bands (ev):

     3.3124  10.5161  12.5538  18.1588  24.0688  27.4942

          k =-0.1538 0.7692 0.0000 (   735 PWs)   bands (ev):

     3.5341  12.4166  13.5495  15.6928  19.3741  22.8034

          k = 0.7692-0.1538 0.9231 (   738 PWs)   bands (ev):

     5.0424  10.8756  11.7207  15.1811  20.3553  24.4669

          k = 0.6923-0.0769 0.8462 (   730 PWs)   bands (ev):

     6.7808   8.9383  10.4622  15.4221  21.0466  27.0711

          k = 0.6154 0.0000 0.7692 (   723 PWs)   bands (ev):

     6.8619   8.3420  10.3375  16.0736  21.8691  29.9634

          k = 0.8462-0.0769 1.0000 (   732 PWs)   bands (ev):

     5.9165   9.2795  13.1067  15.2282  18.9514  22.3861

          k = 0.7692 0.0000 0.9231 (   732 PWs)   bands (ev):

     7.0433   8.6710  11.3280  14.9416  20.1408  24.2698

          k =-0.3077 0.6154 0.0000 (   738 PWs)   bands (ev):

     2.1624  12.2595  14.1859  17.2061  23.6822  26.3487

          k = 0.6154-0.3077 0.9231 (   732 PWs)   bands (ev):

     3.7095  10.1417  13.5239  15.9519  24.5953  26.9321

          k = 0.5385-0.2308 0.8462 (   728 PWs)   bands (ev):

     5.5418   7.8106  13.5604  15.1608  25.2076  25.9989

          k = 0.6923-0.2308 1.0000 (   733 PWs)   bands (ev):

     4.2154  11.3832  12.5531  14.3209  22.8615  25.6671

          k = 0.6154-0.1538 0.9231 (   727 PWs)   bands (ev):

     5.9284   9.4519  11.7743  13.6554  23.9948  27.5725

          k = 0.5385-0.0769 0.8462 (   730 PWs)   bands (ev):

     7.1662   8.0227  11.2998  13.9053  24.8309  27.9932

          k = 0.4615 0.0000 0.7692 (   726 PWs)   bands (ev):

     5.3375   9.6441  11.5324  14.7230  25.7931  26.7657

          k = 0.6923-0.0769 1.0000 (   730 PWs)   bands (ev):

     6.5742   9.8443  10.9451  13.4269  22.4430  25.2995

          k = 0.6154 0.0000 0.9231 (   726 PWs)   bands (ev):

     7.9083   8.9150   9.9296  13.2131  23.7897  27.4454

          k = 0.5385-0.0769 1.0000 (   731 PWs)   bands (ev):

     7.6500   9.2086  10.3192  12.3741  26.3671  27.7150

     the Fermi energy is     9.7966 ev

!    total energy              =     -39.49240885 Ry
     Harris-Foulkes estimate   =     -39.49240885 Ry
     estimated scf accuracy    <          7.5E-09 Ry

     total all-electron energy =      -485.635191 Ry

     The total energy is the sum of the following terms:

     one-electron contribution =       3.61681951 Ry
     hartree contribution      =       0.00832522 Ry
     xc contribution           =      -3.13097618 Ry
     ewald contribution        =      -5.73107759 Ry
     one-center paw contrib.   =     -34.25548114 Ry
     smearing contrib. (-TS)   =      -0.00001867 Ry

     convergence has been achieved in   4 iterations

     Writing output data file Al.save

     init_run     :      0.49s CPU      0.52s WALL (       1 calls)
     electrons    :      3.17s CPU      3.33s WALL (       1 calls)

     Called by init_run:
     wfcinit      :      0.18s CPU      0.19s WALL (       1 calls)
     potinit      :      0.06s CPU      0.07s WALL (       1 calls)

     Called by electrons:
     c_bands      :      2.49s CPU      2.61s WALL (       5 calls)
     sum_band     :      0.40s CPU      0.44s WALL (       5 calls)
     v_of_rho     :      0.03s CPU      0.03s WALL (       5 calls)
     newd         :      0.01s CPU      0.01s WALL (       5 calls)
     mix_rho      :      0.02s CPU      0.02s WALL (       5 calls)

     Called by c_bands:
     init_us_2    :      0.13s CPU      0.11s WALL (     924 calls)
     cegterg      :      2.38s CPU      2.49s WALL (     420 calls)

     Called by *egterg:
     h_psi        :      1.89s CPU      1.99s WALL (    1571 calls)
     s_psi        :      0.03s CPU      0.03s WALL (    1571 calls)
     g_psi        :      0.02s CPU      0.03s WALL (    1067 calls)
     cdiaghg      :      0.34s CPU      0.32s WALL (    1403 calls)

     Called by h_psi:
     add_vuspsi   :      0.02s CPU      0.03s WALL (    1571 calls)

     General routines
     calbec       :      0.08s CPU      0.08s WALL (    1991 calls)
     fft          :      0.01s CPU      0.01s WALL (      67 calls)
     fftw         :      1.78s CPU      1.89s WALL (   16948 calls)
     davcio       :      0.02s CPU      0.03s WALL (    1344 calls)

     Parallel routines
     fft_scatter  :      0.50s CPU      0.55s WALL (   17015 calls)

     PAW routines
     PAW_pot      :      0.25s CPU      0.26s WALL (       5 calls)
     PAW_ddot     :      0.02s CPU      0.02s WALL (      12 calls)
     PAW_symme    :      0.00s CPU      0.00s WALL (      10 calls)

     PWSCF        :     4.38s CPU         4.60s WALL


   This run was terminated on:   1:32: 5  12Jul2015            

=------------------------------------------------------------------------------=
   JOB DONE.
=------------------------------------------------------------------------------=
