
     Program PWSCF v.5.0.2 (svn rev. 9656) starts on 11Jul2015 at 20:19:41 

     This program is part of the open-source Quantum ESPRESSO suite
     for quantum simulation of materials; please cite
         "P. Giannozzi et al., J. Phys.:Condens. Matter 21 395502 (2009);
          URL http://www.quantum-espresso.org", 
     in publications or presentations arising from this work. More details at
     http://www.quantum-espresso.org/quote.php

     Parallel version (MPI), running on     4 processors
     R & G space division:  proc/nbgrp/npool/nimage =       4

     Current dimensions of program PWSCF are:
     Max number of different atomic species (ntypx) = 10
     Max number of k-points (npk) =  40000
     Max angular momentum in pseudopotentials (lmaxx) =  3
     Waiting for input...
     Reading input from standard input
               file Cu.pbe.UPF: wavefunction(s)  4S 3D renormalized

     Subspace diagonalization in iterative solution of the eigenvalue problem:
     a serial algorithm will be used


     Parallelization info
     --------------------
     sticks:   dense  smooth     PW     G-vecs:    dense   smooth      PW
     Min         180     180     55                 3156     3156     533
     Max         181     181     57                 3157     3157     534
     Sum         721     721    223                12627    12627    2133



     bravais-lattice index     =            2
     lattice parameter (alat)  =      10.2000  a.u.
     unit-cell volume          =     265.3020 (a.u.)^3
     number of atoms/cell      =            2
     number of atomic types    =            1
     number of electrons       =        22.00
     number of Kohn-Sham states=           15
     kinetic-energy cutoff     =      50.0000  Ry
     charge density cutoff     =     200.0000  Ry
     convergence threshold     =      1.0E-07
     mixing beta               =       0.7000
     number of iterations used =            8  plain     mixing
     Exchange-correlation      =  SLA  PW   PBX  PBC ( 1 4 3 4 0)
     EXX-fraction              =        0.00

     celldm(1)=  10.200000  celldm(2)=   0.000000  celldm(3)=   0.000000
     celldm(4)=   0.000000  celldm(5)=   0.000000  celldm(6)=   0.000000

     crystal axes: (cart. coord. in units of alat)
               a(1) = (  -0.500000   0.000000   0.500000 )  
               a(2) = (   0.000000   0.500000   0.500000 )  
               a(3) = (  -0.500000   0.500000   0.000000 )  

     reciprocal axes: (cart. coord. in units 2 pi/alat)
               b(1) = ( -1.000000 -1.000000  1.000000 )  
               b(2) = (  1.000000  1.000000  1.000000 )  
               b(3) = ( -1.000000  1.000000 -1.000000 )  


     PseudoPot. # 1 for Cu read from file:
     ./Cu.pbe.UPF
     MD5 check sum: 0c51aa2b3b25e0d1c3270f17c0a46a12
     Pseudo is Projector augmented-wave + core cor, Zval = 11.0
     Generated using "atomic" code by A. Dal Corso  v.5.0.99 svn rev. 10869
     Shape of augmentation charge: BESSEL
     Using radial grid of 1199 points,  6 beta functions with: 
                l(1) =   0
                l(2) =   0
                l(3) =   1
                l(4) =   1
                l(5) =   2
                l(6) =   2
     Q(r) pseudized with 0 coefficients 


     atomic species   valence    mass     pseudopotential
        Cu            11.00    63.54600     Cu( 1.00)

     48 Sym. Ops., with inversion, found (24 have fractional translation)



   Cartesian axes

     site n.     atom                  positions (alat units)
         1           Cu  tau(   1) = (   0.0000000   0.0000000   0.0000000  )
         2           Cu  tau(   2) = (   0.2500000   0.2500000   0.2500000  )

     number of k points=    72  gaussian smearing, width (Ry)=  0.0030
                       cart. coord. in units 2pi/alat
        k(    1) = (   0.0000000   0.0000000   0.0000000), wk =   0.0011574
        k(    2) = (  -0.0833333   0.0833333  -0.0833333), wk =   0.0092593
        k(    3) = (  -0.1666667   0.1666667  -0.1666667), wk =   0.0092593
        k(    4) = (  -0.2500000   0.2500000  -0.2500000), wk =   0.0092593
        k(    5) = (  -0.3333333   0.3333333  -0.3333333), wk =   0.0092593
        k(    6) = (  -0.4166667   0.4166667  -0.4166667), wk =   0.0092593
        k(    7) = (   0.5000000  -0.5000000   0.5000000), wk =   0.0046296
        k(    8) = (   0.0000000   0.1666667   0.0000000), wk =   0.0069444
        k(    9) = (  -0.0833333   0.2500000  -0.0833333), wk =   0.0277778
        k(   10) = (  -0.1666667   0.3333333  -0.1666667), wk =   0.0277778
        k(   11) = (  -0.2500000   0.4166667  -0.2500000), wk =   0.0277778
        k(   12) = (  -0.3333333   0.5000000  -0.3333333), wk =   0.0277778
        k(   13) = (   0.5833333  -0.4166667   0.5833333), wk =   0.0277778
        k(   14) = (   0.5000000  -0.3333333   0.5000000), wk =   0.0277778
        k(   15) = (   0.4166667  -0.2500000   0.4166667), wk =   0.0277778
        k(   16) = (   0.3333333  -0.1666667   0.3333333), wk =   0.0277778
        k(   17) = (   0.2500000  -0.0833333   0.2500000), wk =   0.0277778
        k(   18) = (   0.1666667  -0.0000000   0.1666667), wk =   0.0138889
        k(   19) = (   0.0000000   0.3333333   0.0000000), wk =   0.0069444
        k(   20) = (  -0.0833333   0.4166667  -0.0833333), wk =   0.0277778
        k(   21) = (  -0.1666667   0.5000000  -0.1666667), wk =   0.0277778
        k(   22) = (  -0.2500000   0.5833333  -0.2500000), wk =   0.0277778
        k(   23) = (   0.6666667  -0.3333333   0.6666667), wk =   0.0277778
        k(   24) = (   0.5833333  -0.2500000   0.5833333), wk =   0.0277778
        k(   25) = (   0.5000000  -0.1666667   0.5000000), wk =   0.0277778
        k(   26) = (   0.4166667  -0.0833333   0.4166667), wk =   0.0277778
        k(   27) = (   0.3333333   0.0000000   0.3333333), wk =   0.0138889
        k(   28) = (   0.0000000   0.5000000   0.0000000), wk =   0.0069444
        k(   29) = (  -0.0833333   0.5833333  -0.0833333), wk =   0.0277778
        k(   30) = (  -0.1666667   0.6666667  -0.1666667), wk =   0.0277778
        k(   31) = (   0.7500000  -0.2500000   0.7500000), wk =   0.0277778
        k(   32) = (   0.6666667  -0.1666667   0.6666667), wk =   0.0277778
        k(   33) = (   0.5833333  -0.0833333   0.5833333), wk =   0.0277778
        k(   34) = (   0.5000000   0.0000000   0.5000000), wk =   0.0138889
        k(   35) = (   0.0000000   0.6666667   0.0000000), wk =   0.0069444
        k(   36) = (  -0.0833333   0.7500000  -0.0833333), wk =   0.0277778
        k(   37) = (   0.8333333  -0.1666667   0.8333333), wk =   0.0277778
        k(   38) = (   0.7500000  -0.0833333   0.7500000), wk =   0.0277778
        k(   39) = (   0.6666667  -0.0000000   0.6666667), wk =   0.0138889
        k(   40) = (   0.0000000   0.8333333   0.0000000), wk =   0.0069444
        k(   41) = (   0.9166667  -0.0833333   0.9166667), wk =   0.0277778
        k(   42) = (   0.8333333   0.0000000   0.8333333), wk =   0.0138889
        k(   43) = (   0.0000000  -1.0000000   0.0000000), wk =   0.0034722
        k(   44) = (  -0.1666667   0.3333333   0.0000000), wk =   0.0277778
        k(   45) = (  -0.2500000   0.4166667  -0.0833333), wk =   0.0555556
        k(   46) = (  -0.3333333   0.5000000  -0.1666667), wk =   0.0555556
        k(   47) = (   0.5833333  -0.4166667   0.7500000), wk =   0.0555556
        k(   48) = (   0.5000000  -0.3333333   0.6666667), wk =   0.0277778
        k(   49) = (  -0.1666667   0.5000000   0.0000000), wk =   0.0277778
        k(   50) = (  -0.2500000   0.5833333  -0.0833333), wk =   0.0555556
        k(   51) = (   0.6666667  -0.3333333   0.8333333), wk =   0.0555556
        k(   52) = (   0.5833333  -0.2500000   0.7500000), wk =   0.0555556
        k(   53) = (   0.5000000  -0.1666667   0.6666667), wk =   0.0555556
        k(   54) = (   0.4166667  -0.0833333   0.5833333), wk =   0.0555556
        k(   55) = (   0.3333333   0.0000000   0.5000000), wk =   0.0277778
        k(   56) = (  -0.1666667   0.6666667  -0.0000000), wk =   0.0277778
        k(   57) = (   0.7500000  -0.2500000   0.9166667), wk =   0.0555556
        k(   58) = (   0.6666667  -0.1666667   0.8333333), wk =   0.0555556
        k(   59) = (   0.5833333  -0.0833333   0.7500000), wk =   0.0555556
        k(   60) = (   0.5000000   0.0000000   0.6666667), wk =   0.0277778
        k(   61) = (   0.8333333  -0.1666667   1.0000000), wk =   0.0277778
        k(   62) = (   0.7500000  -0.0833333   0.9166667), wk =   0.0555556
        k(   63) = (   0.6666667   0.0000000   0.8333333), wk =   0.0277778
        k(   64) = (  -0.1666667  -1.0000000  -0.0000000), wk =   0.0138889
        k(   65) = (   0.6666667  -0.3333333   1.0000000), wk =   0.0277778
        k(   66) = (   0.5833333  -0.2500000   0.9166667), wk =   0.0555556
        k(   67) = (   0.5000000  -0.1666667   0.8333333), wk =   0.0277778
        k(   68) = (   0.6666667  -0.1666667   1.0000000), wk =   0.0277778
        k(   69) = (   0.5833333  -0.0833333   0.9166667), wk =   0.0555556
        k(   70) = (   0.5000000   0.0000000   0.8333333), wk =   0.0277778
        k(   71) = (  -0.3333333  -1.0000000   0.0000000), wk =   0.0138889
        k(   72) = (  -0.5000000  -1.0000000   0.0000000), wk =   0.0069444

     Dense  grid:    12627 G-vectors     FFT dimensions: (  36,  36,  36)

     Largest allocated arrays     est. size (Mb)     dimensions
        Kohn-Sham Wavefunctions         0.09 Mb     (    408,   15)
        NL pseudopotentials             0.22 Mb     (    408,   36)
        Each V/rho on FFT grid          0.18 Mb     (  11664)
        Each G-vector array             0.02 Mb     (   3157)
        G-vector shells                 0.00 Mb     (    176)
     Largest temporary arrays     est. size (Mb)     dimensions
        Auxiliary wavefunctions         0.37 Mb     (    408,   60)
        Each subspace H/S matrix        0.05 Mb     (  60,  60)
        Each <psi_i|beta_j> matrix      0.01 Mb     (     36,   15)
        Arrays for rho mixing           1.42 Mb     (  11664,   8)

     Check: negative/imaginary core charge=   -0.000143    0.000000

     Initial potential from superposition of free atoms

     starting charge   21.99954, renormalised to   22.00000
     Starting wfc are   18 randomized atomic wfcs
     Checking if some PAW data can be deallocated... 

     total cpu time spent up to now is        3.5 secs

     per-process dynamical memory:    11.6 Mb

     Self-consistent Calculation

     iteration #  1     ecut=    50.00 Ry     beta=0.70
     Davidson diagonalization with overlap
     ethr =  1.00E-02,  avg # of iterations =  3.6

     Threshold (ethr) on eigenvalues was too large:
     Diagonalizing with lowered threshold

     Davidson diagonalization with overlap
     ethr =  1.75E-05,  avg # of iterations =  4.6

     total cpu time spent up to now is       15.7 secs

     total energy              =    -426.05704592 Ry
     Harris-Foulkes estimate   =    -426.05690433 Ry
     estimated scf accuracy    <       0.00509698 Ry

     iteration #  2     ecut=    50.00 Ry     beta=0.70
     Davidson diagonalization with overlap
     ethr =  2.32E-05,  avg # of iterations =  1.1

     total cpu time spent up to now is       19.8 secs

     total energy              =    -426.05636082 Ry
     Harris-Foulkes estimate   =    -426.05765824 Ry
     estimated scf accuracy    <       0.00211997 Ry

     iteration #  3     ecut=    50.00 Ry     beta=0.70
     Davidson diagonalization with overlap
     ethr =  9.64E-06,  avg # of iterations =  2.2

     total cpu time spent up to now is       25.2 secs

     total energy              =    -426.05665610 Ry
     Harris-Foulkes estimate   =    -426.05809587 Ry
     estimated scf accuracy    <       0.00457309 Ry

     iteration #  4     ecut=    50.00 Ry     beta=0.70
     Davidson diagonalization with overlap
     ethr =  9.64E-06,  avg # of iterations =  2.0

     total cpu time spent up to now is       30.4 secs

     total energy              =    -426.05733655 Ry
     Harris-Foulkes estimate   =    -426.05733852 Ry
     estimated scf accuracy    <       0.00000722 Ry

     iteration #  5     ecut=    50.00 Ry     beta=0.70
     Davidson diagonalization with overlap
     ethr =  3.28E-08,  avg # of iterations =  3.2

     total cpu time spent up to now is       36.4 secs

     total energy              =    -426.05734348 Ry
     Harris-Foulkes estimate   =    -426.05734343 Ry
     estimated scf accuracy    <       0.00000023 Ry

     iteration #  6     ecut=    50.00 Ry     beta=0.70
     Davidson diagonalization with overlap
     ethr =  1.03E-09,  avg # of iterations =  2.2

     total cpu time spent up to now is       41.3 secs

     End of self-consistent calculation

          k = 0.0000 0.0000 0.0000 (  1591 PWs)   bands (ev):

     0.7442   4.0246   4.0246   4.0246   4.0464   4.0464   5.0805   5.0805
     5.0805   5.7038   5.7038  16.4318  16.4318  16.4318  17.3864

          k =-0.0833 0.0833-0.0833 (  1570 PWs)   bands (ev):

     0.8505   3.9639   3.9639   4.0268   4.1244   4.1244   5.0589   5.0767
     5.0767   5.7045   5.7045  14.7896  15.9232  15.9232  17.8946

          k =-0.1667 0.1667-0.1667 (  1570 PWs)   bands (ev):

     1.1635   3.9231   3.9231   4.0353   4.2062   4.2062   5.0026   5.0761
     5.0761   5.7033   5.7033  12.6661  15.2263  15.2263  17.7951

          k =-0.2500 0.2500-0.2500 (  1582 PWs)   bands (ev):

     1.6612   3.9164   3.9164   4.0544   4.2511   4.2511   4.9401   5.1025
     5.1025   5.6939   5.6939  10.6618  14.6333  14.6333  17.6644

          k =-0.3333 0.3333-0.3333 (  1591 PWs)   bands (ev):

     2.2830   3.9425   3.9425   4.0791   4.2405   4.2405   4.9415   5.1669
     5.1669   5.6715   5.6715   8.8624  14.1867  14.1867  17.6357

          k =-0.4167 0.4167-0.4167 (  1586 PWs)   bands (ev):

     2.8679   3.9925   3.9925   4.0840   4.1891   4.1891   5.1577   5.2439
     5.2439   5.6398   5.6398   7.3483  13.9084  13.9084  17.7135

          k = 0.5000-0.5000 0.5000 (  1568 PWs)   bands (ev):

     3.1214   4.0300   4.0300   4.0724   4.1488   4.1488   5.2811   5.2811
     5.5287   5.6218   5.6218   6.4967  13.8137  13.8137  17.8002

          k = 0.0000 0.1667 0.0000 (  1571 PWs)   bands (ev):

     0.8861   3.9060   4.0308   4.0308   4.0774   4.1719   4.9939   5.1059
     5.1059   5.6786   5.7274  15.1719  15.1719  15.7023  16.8124

          k =-0.0833 0.2500-0.0833 (  1568 PWs)   bands (ev):

     1.1308   3.8551   4.0027   4.0369   4.1513   4.2470   4.9111   5.1193
     5.1324   5.6544   5.7440  13.3800  14.4617  15.3221  17.0376

          k =-0.1667 0.3333-0.1667 (  1574 PWs)   bands (ev):

     1.5691   3.8344   3.9908   4.0475   4.2091   4.3095   4.8434   5.1237
     5.1727   5.6305   5.7510  11.3569  13.9002  14.6966  17.3021

          k =-0.2500 0.4167-0.2500 (  1588 PWs)   bands (ev):

     2.1564   3.8470   4.0058   4.0638   4.2174   4.3226   4.8311   5.1611
     5.2334   5.6064   5.7429   9.4926  13.5288  14.0649  17.0792

          k =-0.3333 0.5000-0.3333 (  1577 PWs)   bands (ev):

     2.7727   3.8846   4.0323   4.0742   4.1923   4.2820   4.9396   5.2825
     5.2898   5.5960   5.7154   7.8678  13.3731  13.5190  16.9210

          k = 0.5833-0.4167 0.5833 (  1576 PWs)   bands (ev):

     3.1605   3.9265   4.0193   4.0800   4.1995   4.2143   5.1240   5.2658
     5.6219   5.6257   5.7047   6.6464  13.1201  13.4458  16.9545

          k = 0.5000-0.3333 0.5000 (  1581 PWs)   bands (ev):

     3.0738   3.9591   3.9678   4.1127   4.1508   4.2571   5.1527   5.1876
     5.5174   5.6130   5.6788   6.9863  12.9118  13.7416  17.1908

          k = 0.4167-0.2500 0.4167 (  1586 PWs)   bands (ev):

     2.5743   3.8995   3.9903   4.0806   4.1810   4.3140   4.9645   5.0936
     5.3351   5.5969   5.7219   8.3835  12.9155  14.2348  17.6221

          k = 0.3333-0.1667 0.3333 (  1584 PWs)   bands (ev):

     1.9471   3.8637   3.9780   4.0524   4.2104   4.3309   4.9004   5.0282
     5.2547   5.6177   5.7434  10.0979  13.1311  14.8803  18.1747

          k = 0.2500-0.0833 0.2500 (  1570 PWs)   bands (ev):

     1.4021   3.8618   3.9678   4.0400   4.1951   4.2895   4.9365   5.0158
     5.1888   5.6474   5.7439  12.0270  13.5437  15.6060  18.1728

          k = 0.1667-0.0000 0.1667 (  1566 PWs)   bands (ev):

     1.0259   3.8967   3.9739   4.0345   4.1447   4.2094   5.0018   5.0416
     5.1335   5.6771   5.7285  13.9986  14.2125  16.1908  17.6880

          k = 0.0000 0.3333 0.0000 (  1559 PWs)   bands (ev):

     1.3064   3.7927   4.0446   4.0446   4.1677   4.3072   4.7786   5.1853
     5.1853   5.6039   5.7712  13.7193  13.7193  14.2351  15.9795

          k =-0.0833 0.4167-0.0833 (  1583 PWs)   bands (ev):

     1.6791   3.7575   4.0438   4.0498   4.2322   4.3720   4.6662   5.2291
     5.2427   5.5579   5.7896  12.0836  13.1233  13.7584  16.1101

          k =-0.1667 0.5000-0.1667 (  1592 PWs)   bands (ev):

     2.2148   3.7556   4.0470   4.0497   4.2717   4.4010   4.6255   5.2783
     5.2979   5.5304   5.7999  10.2313  12.7294  13.0601  16.1426

          k =-0.2500 0.5833-0.2500 (  1591 PWs)   bands (ev):

     2.8202   3.7790   4.0432   4.0456   4.2879   4.3647   4.7103   5.2973
     5.4064   5.5599   5.7993   8.5419  12.3592  12.5735  16.0415

          k = 0.6667-0.3333 0.6667 (  1585 PWs)   bands (ev):

     3.2816   3.8077   4.0143   4.0424   4.2989   4.3176   4.8984   5.2244
     5.6364   5.6756   5.8871   7.1137  11.7845  12.6751  16.0937

          k = 0.5833-0.2500 0.5833 (  1576 PWs)   bands (ev):

     3.3422   3.8581   3.9546   4.0766   4.2140   4.3717   5.0546   5.1181
     5.6636   5.7084   5.9976   6.7768  11.3988  13.0306  16.3288

          k = 0.5000-0.1667 0.5000 (  1578 PWs)   bands (ev):

     2.9786   3.8919   3.9308   4.1228   4.1366   4.4232   5.0138   5.0335
     5.5103   5.5950   5.7556   8.0787  11.2368  13.6111  16.7500

          k = 0.4167-0.0833 0.4167 (  1574 PWs)   bands (ev):

     2.3966   3.8480   3.9858   4.0512   4.1838   4.4315   4.9161   4.9549
     5.4226   5.5379   5.7751   9.6957  11.3118  14.3589  17.3580

          k = 0.3333 0.0000 0.3333 (  1574 PWs)   bands (ev):

     1.8293   3.8360   4.0004   4.0251   4.2013   4.3766   4.8911   4.9647
     5.3114   5.5836   5.7696  11.3890  11.7449  15.1504  18.1399

          k = 0.0000 0.5000 0.0000 (  1587 PWs)   bands (ev):

     1.9849   3.7076   4.0573   4.0573   4.3098   4.4322   4.5028   5.3196
     5.3196   5.4830   5.8196  12.4144  12.4702  12.4702  15.3388

          k =-0.0833 0.5833-0.0833 (  1587 PWs)   bands (ev):

     2.4587   3.6927   4.0510   4.0595   4.3819   4.3931   4.4872   5.3587
     5.3968   5.4580   5.8515  10.8753  11.9633  12.0153  15.4384

          k =-0.1667 0.6667-0.1667 (  1588 PWs)   bands (ev):

     3.0216   3.7074   4.0149   4.0524   4.3612   4.4307   4.5518   5.2772
     5.5160   5.5534   5.8947   9.2833  11.1653  11.8073  15.4346

          k = 0.7500-0.2500 0.7500 (  1592 PWs)   bands (ev):

     3.4879   3.7296   3.9867   4.0246   4.3396   4.4731   4.6974   5.1652
     5.6533   5.7140   6.0594   7.8274  10.4537  11.8739  15.4796

          k = 0.6667-0.1667 0.6667 (  1579 PWs)   bands (ev):

     3.6070   3.7925   3.9745   4.0096   4.2688   4.5215   4.8995   5.0410
     5.7279   5.7609   6.5777   6.8176   9.9304  12.2140  15.6830

          k = 0.5833-0.0833 0.5833 (  1580 PWs)   bands (ev):

     3.3885   3.8697   3.9160   4.0717   4.1774   4.5559   4.9357   5.0290
     5.6944   5.7711   5.8127   7.9732   9.6461  12.7944  16.0588

          k = 0.5000 0.0000 0.5000 (  1576 PWs)   bands (ev):

     2.9317   3.8685   3.9289   4.1019   4.1386   4.5246   4.9070   5.0055
     5.5086   5.5851   5.7855   9.3025   9.7862  13.5514  16.6156

          k = 0.0000 0.6667 0.0000 (  1580 PWs)   bands (ev):

     2.8650   3.6682   4.0639   4.0639   4.2211   4.4920   4.5273   5.3220
     5.4908   5.4908   5.9173  10.4455  11.4850  11.4850  14.9314

          k =-0.0833 0.7500-0.0833 (  1594 PWs)   bands (ev):

     3.3612   3.6793   4.0035   4.0607   4.1927   4.5493   4.5770   5.2185
     5.5878   5.5900   6.0248   9.4097  10.6874  11.2018  15.0260

          k = 0.8333-0.1667 0.8333 (  1596 PWs)   bands (ev):

     3.7040   3.7627   3.9267   4.0427   4.2897   4.5781   4.6406   5.0949
     5.6765   5.7266   6.2745   8.3702   9.6290  11.2057  15.0687

          k = 0.7500-0.0833 0.7500 (  1589 PWs)   bands (ev):

     3.6984   3.9028   3.9421   4.0066   4.3003   4.6898   4.7315   4.9634
     5.7367   5.8144   6.8192   7.4467   8.8176  11.5013  15.2321

          k = 0.6667-0.0000 0.6667 (  1578 PWs)   bands (ev):

     3.6363   3.8891   3.9595   3.9927   4.2348   4.6754   4.8916   4.9090
     5.7663   5.8028   6.3856   7.8804   8.5362  12.0531  15.5574

          k = 0.0000 0.8333 0.0000 (  1600 PWs)   bands (ev):

     3.6926   3.7731   3.9796   4.0651   4.0651   4.5472   4.6999   5.1297
     5.6468   5.6468   6.2284   8.5920  10.8352  10.8352  14.7425

          k = 0.9167-0.0833 0.9167 (  1592 PWs)   bands (ev):

     3.7313   3.8610   4.0239   4.0587   4.2242   4.5042   4.7939   5.0145
     5.7010   5.7192   6.5957   7.8039  10.1497  10.7612  14.8328

          k = 0.8333 0.0000 0.8333 (  1600 PWs)   bands (ev):

     3.7265   3.8515   4.0380   4.0415   4.3364   4.5612   4.8367   4.9062
     5.7306   5.7914   7.1877   7.2246   9.1069  10.9944  14.9551

          k = 0.0000-1.0000 0.0000 (  1588 PWs)   bands (ev):

     3.7932   3.7932   4.0650   4.0650   4.3707   4.3707   4.9177   4.9177
     5.7123   5.7123   7.0965   7.0965  10.6043  10.6043  14.7611

          k =-0.1667 0.3333 0.0000 (  1575 PWs)   bands (ev):

     1.4394   3.8123   4.0143   4.0408   4.1905   4.3198   4.8122   5.1111
     5.2177   5.6119   5.7655  12.6367  12.9224  15.0640  17.0128

          k =-0.2500 0.4167-0.0833 (  1582 PWs)   bands (ev):

     1.9278   3.8010   4.0214   4.0423   4.2192   4.3817   4.7535   5.1118
     5.3057   5.5687   5.7776  10.8188  12.3569  14.4037  17.2366

          k =-0.3333 0.5000-0.1667 (  1587 PWs)   bands (ev):

     2.5305   3.8211   4.0034   4.0765   4.2115   4.3894   4.7857   5.1577
     5.3856   5.5535   5.7729   9.0458  12.0942  13.6774  17.0566

          k = 0.5833-0.4167 0.7500 (  1584 PWs)   bands (ev):

     3.0826   3.8554   3.9698   4.1076   4.2048   4.3448   4.9317   5.2138
     5.5425   5.6099   5.7533   7.5158  12.0213  13.1054  16.9283

          k = 0.5000-0.3333 0.6667 (  1580 PWs)   bands (ev):

     3.3164   3.8671   3.9518   4.1019   4.2352   4.3001   5.0504   5.1826
     5.6615   5.6811   6.0731   6.5104  12.0394  12.8645  16.8907

          k =-0.1667 0.5000 0.0000 (  1582 PWs)   bands (ev):

     2.1029   3.7320   4.0377   4.0609   4.2870   4.4350   4.5586   5.2510
     5.3558   5.5012   5.8125  11.3784  11.8003  13.2337  16.2757

          k =-0.2500 0.5833-0.0833 (  1586 PWs)   bands (ev):

     2.6577   3.7386   4.0017   4.0792   4.3165   4.4511   4.5649   5.2657
     5.4433   5.5088   5.8327   9.7910  11.2969  12.5387  16.4100

          k = 0.6667-0.3333 0.8333 (  1581 PWs)   bands (ev):

     3.2073   3.7625   3.9570   4.0883   4.3304   4.4164   4.7026   5.2169
     5.5866   5.6255   5.8680   8.2178  11.0426  12.0075  16.3872

          k = 0.5833-0.2500 0.7500 (  1577 PWs)   bands (ev):

     3.5187   3.7810   3.9242   4.0873   4.3092   4.4157   4.8899   5.1132
     5.6929   5.7413   6.2999   6.8970  10.7477  11.9426  16.5136

          k = 0.5000-0.1667 0.6667 (  1582 PWs)   bands (ev):

     3.4254   3.8309   3.9015   4.1074   4.2372   4.4633   4.9127   5.0992
     5.6795   5.7435   5.9810   7.3581  10.4862  12.3042  16.8016

          k = 0.4167-0.0833 0.5833 (  1586 PWs)   bands (ev):

     3.0044   3.8241   3.9334   4.1153   4.1968   4.4967   4.7805   5.1401
     5.5175   5.5951   5.8017   8.7780  10.4121  12.9308  17.2376

          k = 0.3333 0.0000 0.5000 (  1583 PWs)   bands (ev):

     2.4396   3.7989   3.9893   4.0712   4.2160   4.4640   4.7199   5.1103
     5.4528   5.5034   5.7967  10.2788  10.7238  13.7054  17.7554

          k =-0.1667 0.6667-0.0000 (  1583 PWs)   bands (ev):

     2.9487   3.6891   4.0061   4.0759   4.3266   4.4516   4.5289   5.2888
     5.5042   5.5262   5.9075  10.0999  10.9173  11.5265  15.7800

          k = 0.7500-0.2500 0.9167 (  1589 PWs)   bands (ev):

     3.4481   3.7099   3.9363   4.0804   4.3591   4.4929   4.5853   5.1771
     5.6287   5.6544   6.0227   8.8913  10.2028  11.0828  15.9140

          k = 0.6667-0.1667 0.8333 (  1585 PWs)   bands (ev):

     3.7134   3.7554   3.9079   4.0694   4.3547   4.5613   4.7173   5.0475
     5.7171   5.7827   6.4261   7.6527   9.5678  11.1265  16.0290

          k = 0.5833-0.0833 0.7500 (  1586 PWs)   bands (ev):

     3.6623   3.8406   3.8964   4.0737   4.2847   4.6137   4.8459   4.9647
     5.7592   5.7952   6.5026   7.4516   9.1148  11.5164  16.3066

          k = 0.5000 0.0000 0.6667 (  1581 PWs)   bands (ev):

     3.4376   3.8493   3.8786   4.1090   4.2166   4.6022   4.7876   5.0724
     5.7190   5.7273   5.8915   8.5157   9.0976  12.1482  16.7427

          k = 0.8333-0.1667 1.0000 (  1594 PWs)   bands (ev):

     3.7023   3.7660   3.9120   4.0768   4.2212   4.5416   4.6722   5.1082
     5.6746   5.6778   6.2446   8.5827  10.3445  10.5233  15.5244

          k = 0.7500-0.0833 0.9167 (  1596 PWs)   bands (ev):

     3.7260   3.8295   3.9833   4.0697   4.3579   4.5555   4.7455   4.9746
     5.7357   5.7774   6.6993   7.8345   9.3093  10.5205  15.6815

          k = 0.6667 0.0000 0.8333 (  1584 PWs)   bands (ev):

     3.7072   3.8507   3.9864   4.0548   4.3358   4.7119   4.7573   4.8830
     5.7617   5.8281   7.0669   7.4872   8.5130  10.8958  15.9148

          k =-0.1667-1.0000-0.0000 (  1602 PWs)   bands (ev):

     3.7807   3.7807   4.0632   4.0632   4.4131   4.4131   4.8927   4.8927
     5.7402   5.7402   7.1550   7.1550  10.1800  10.1800  15.4967

          k = 0.6667-0.3333 1.0000 (  1587 PWs)   bands (ev):

     3.1689   3.7510   3.9308   4.1046   4.3363   4.5464   4.5524   5.2013
     5.5581   5.6142   5.8818   9.3181   9.9432  11.7836  17.5917

          k = 0.5833-0.2500 0.9167 (  1592 PWs)   bands (ev):

     3.5694   3.7704   3.8846   4.1098   4.3569   4.5318   4.7067   5.0875
     5.7086   5.7502   6.1021   8.0923   9.6892  11.1433  17.4673

          k = 0.5000-0.1667 0.8333 (  1584 PWs)   bands (ev):

     3.7187   3.7560   3.8846   4.1045   4.3741   4.5163   4.8326   4.9886
     5.7513   5.7908   6.6963   7.0986   9.7092  10.8732  17.4512

          k = 0.6667-0.1667 1.0000 (  1586 PWs)   bands (ev):

     3.7335   3.7422   3.8946   4.0987   4.4672   4.4949   4.6456   5.0436
     5.7429   5.7468   6.3382   8.4005   9.4730  10.2060  17.2691

          k = 0.5833-0.0833 0.9167 (  1590 PWs)   bands (ev):

     3.7354   3.7790   3.9732   4.0899   4.4514   4.6124   4.7301   4.9047
     5.7838   5.8185   6.9243   7.6594   8.9554  10.0040  17.4239

          k = 0.5000 0.0000 0.8333 (  1589 PWs)   bands (ev):

     3.7164   3.7873   3.9288   4.0992   4.4000   4.6783   4.6832   4.9416
     5.7832   5.8093   6.6377   7.9387   8.7593  10.4199  17.6832

          k =-0.3333-1.0000 0.0000 (  1586 PWs)   bands (ev):

     3.7593   3.7593   4.0590   4.0590   4.5091   4.5091   4.8303   4.8303
     5.7945   5.7945   7.3159   7.3159   9.4618   9.4618  17.1680

          k =-0.5000-1.0000 0.0000 (  1604 PWs)   bands (ev):

     3.7499   3.7499   4.0566   4.0566   4.5720   4.5720   4.7835   4.7835
     5.8206   5.8206   7.4355   7.4355   9.1128   9.1128  18.7620

     the Fermi energy is     6.8817 ev

!    total energy              =    -426.05734349 Ry
     Harris-Foulkes estimate   =    -426.05734352 Ry
     estimated scf accuracy    <       0.00000004 Ry

     total all-electron energy =     -6619.816880 Ry

     The total energy is the sum of the following terms:

     one-electron contribution =    -116.89560595 Ry
     hartree contribution      =      57.93967271 Ry
     xc contribution           =     -73.50118033 Ry
     ewald contribution        =    -127.80442424 Ry
     one-center paw contrib.   =    -165.79574469 Ry
     smearing contrib. (-TS)   =      -0.00006099 Ry

     convergence has been achieved in   6 iterations

     Writing output data file Cu.save

     init_run     :      2.63s CPU      2.72s WALL (       1 calls)
     electrons    :     36.95s CPU     37.79s WALL (       1 calls)

     Called by init_run:
     wfcinit      :      1.70s CPU      1.75s WALL (       1 calls)
     potinit      :      0.34s CPU      0.35s WALL (       1 calls)

     Called by electrons:
     c_bands      :     29.45s CPU     30.09s WALL (       7 calls)
     sum_band     :      5.10s CPU      5.19s WALL (       7 calls)
     v_of_rho     :      0.14s CPU      0.15s WALL (       7 calls)
     newd         :      0.23s CPU      0.23s WALL (       7 calls)
     mix_rho      :      0.19s CPU      0.19s WALL (       7 calls)

     Called by c_bands:
     init_us_2    :      0.58s CPU      0.59s WALL (    1080 calls)
     cegterg      :     28.01s CPU     28.60s WALL (     504 calls)

     Called by *egterg:
     h_psi        :     24.47s CPU     24.99s WALL (    1937 calls)
     s_psi        :      0.66s CPU      0.65s WALL (    1937 calls)
     g_psi        :      0.17s CPU      0.18s WALL (    1361 calls)
     cdiaghg      :      1.86s CPU      1.88s WALL (    1793 calls)

     Called by h_psi:
     add_vuspsi   :      0.65s CPU      0.66s WALL (    1937 calls)

     General routines
     calbec       :      1.06s CPU      1.02s WALL (    2441 calls)
     fft          :      0.07s CPU      0.08s WALL (      93 calls)
     fftw         :     24.88s CPU     25.02s WALL (   50772 calls)
     davcio       :      0.10s CPU      0.11s WALL (    1584 calls)

     Parallel routines
     fft_scatter  :      4.70s CPU      4.68s WALL (   50865 calls)

     PAW routines
     PAW_pot      :      2.14s CPU      2.26s WALL (       7 calls)
     PAW_ddot     :      0.18s CPU      0.18s WALL (      37 calls)
     PAW_symme    :      0.01s CPU      0.01s WALL (      14 calls)

     PWSCF        :    40.72s CPU        41.68s WALL


   This run was terminated on:  20:20:22  11Jul2015            

=------------------------------------------------------------------------------=
   JOB DONE.
=------------------------------------------------------------------------------=
