
     Program PWSCF v.5.0.2 (svn rev. 9656) starts on 11Jul2015 at 20:54:55 

     This program is part of the open-source Quantum ESPRESSO suite
     for quantum simulation of materials; please cite
         "P. Giannozzi et al., J. Phys.:Condens. Matter 21 395502 (2009);
          URL http://www.quantum-espresso.org", 
     in publications or presentations arising from this work. More details at
     http://www.quantum-espresso.org/quote.php

     Parallel version (MPI), running on     4 processors
     R & G space division:  proc/nbgrp/npool/nimage =       4

     Current dimensions of program PWSCF are:
     Max number of different atomic species (ntypx) = 10
     Max number of k-points (npk) =  40000
     Max angular momentum in pseudopotentials (lmaxx) =  3
     Waiting for input...
     Reading input from standard input
               file Cu.pbe.UPF: wavefunction(s)  4S 3D renormalized

     Subspace diagonalization in iterative solution of the eigenvalue problem:
     a serial algorithm will be used


     Parallelization info
     --------------------
     sticks:   dense  smooth     PW     G-vecs:    dense   smooth      PW
     Min         321     321     94                 7681     7681    1227
     Max         322     322     95                 7686     7686    1228
     Sum        1285    1285    379                30731    30731    4909



     bravais-lattice index     =            2
     lattice parameter (alat)  =      10.2000  a.u.
     unit-cell volume          =     265.3020 (a.u.)^3
     number of atoms/cell      =            2
     number of atomic types    =            1
     number of electrons       =        22.00
     number of Kohn-Sham states=           15
     kinetic-energy cutoff     =      90.0000  Ry
     charge density cutoff     =     360.0000  Ry
     convergence threshold     =      1.0E-07
     mixing beta               =       0.7000
     number of iterations used =            8  plain     mixing
     Exchange-correlation      =  SLA  PW   PBX  PBC ( 1 4 3 4 0)
     EXX-fraction              =        0.00

     celldm(1)=  10.200000  celldm(2)=   0.000000  celldm(3)=   0.000000
     celldm(4)=   0.000000  celldm(5)=   0.000000  celldm(6)=   0.000000

     crystal axes: (cart. coord. in units of alat)
               a(1) = (  -0.500000   0.000000   0.500000 )  
               a(2) = (   0.000000   0.500000   0.500000 )  
               a(3) = (  -0.500000   0.500000   0.000000 )  

     reciprocal axes: (cart. coord. in units 2 pi/alat)
               b(1) = ( -1.000000 -1.000000  1.000000 )  
               b(2) = (  1.000000  1.000000  1.000000 )  
               b(3) = ( -1.000000  1.000000 -1.000000 )  


     PseudoPot. # 1 for Cu read from file:
     ./Cu.pbe.UPF
     MD5 check sum: 0c51aa2b3b25e0d1c3270f17c0a46a12
     Pseudo is Projector augmented-wave + core cor, Zval = 11.0
     Generated using "atomic" code by A. Dal Corso  v.5.0.99 svn rev. 10869
     Shape of augmentation charge: BESSEL
     Using radial grid of 1199 points,  6 beta functions with: 
                l(1) =   0
                l(2) =   0
                l(3) =   1
                l(4) =   1
                l(5) =   2
                l(6) =   2
     Q(r) pseudized with 0 coefficients 


     atomic species   valence    mass     pseudopotential
        Cu            11.00    63.54600     Cu( 1.00)

     24 Sym. Ops. (no inversion) found
          (note: 24 additional sym.ops. were found but ignored
           their fractional translations are incommensurate with FFT grid)


   Cartesian axes

     site n.     atom                  positions (alat units)
         1           Cu  tau(   1) = (   0.0000000   0.0000000   0.0000000  )
         2           Cu  tau(   2) = (   0.2500000   0.2500000   0.2500000  )

     number of k points=    84  gaussian smearing, width (Ry)=  0.0030
                       cart. coord. in units 2pi/alat
        k(    1) = (   0.0000000   0.0000000   0.0000000), wk =   0.0009103
        k(    2) = (  -0.0769231   0.0769231  -0.0769231), wk =   0.0072827
        k(    3) = (  -0.1538462   0.1538462  -0.1538462), wk =   0.0072827
        k(    4) = (  -0.2307692   0.2307692  -0.2307692), wk =   0.0072827
        k(    5) = (  -0.3076923   0.3076923  -0.3076923), wk =   0.0072827
        k(    6) = (  -0.3846154   0.3846154  -0.3846154), wk =   0.0072827
        k(    7) = (  -0.4615385   0.4615385  -0.4615385), wk =   0.0072827
        k(    8) = (   0.0000000   0.1538462   0.0000000), wk =   0.0054620
        k(    9) = (  -0.0769231   0.2307692  -0.0769231), wk =   0.0218480
        k(   10) = (  -0.1538462   0.3076923  -0.1538462), wk =   0.0218480
        k(   11) = (  -0.2307692   0.3846154  -0.2307692), wk =   0.0218480
        k(   12) = (  -0.3076923   0.4615385  -0.3076923), wk =   0.0218480
        k(   13) = (  -0.3846154   0.5384615  -0.3846154), wk =   0.0218480
        k(   14) = (   0.5384615  -0.3846154   0.5384615), wk =   0.0218480
        k(   15) = (   0.4615385  -0.3076923   0.4615385), wk =   0.0218480
        k(   16) = (   0.3846154  -0.2307692   0.3846154), wk =   0.0218480
        k(   17) = (   0.3076923  -0.1538462   0.3076923), wk =   0.0218480
        k(   18) = (   0.2307692  -0.0769231   0.2307692), wk =   0.0218480
        k(   19) = (   0.1538462   0.0000000   0.1538462), wk =   0.0109240
        k(   20) = (   0.0000000   0.3076923   0.0000000), wk =   0.0054620
        k(   21) = (  -0.0769231   0.3846154  -0.0769231), wk =   0.0218480
        k(   22) = (  -0.1538462   0.4615385  -0.1538462), wk =   0.0218480
        k(   23) = (  -0.2307692   0.5384615  -0.2307692), wk =   0.0218480
        k(   24) = (  -0.3076923   0.6153846  -0.3076923), wk =   0.0218480
        k(   25) = (   0.6153846  -0.3076923   0.6153846), wk =   0.0218480
        k(   26) = (   0.5384615  -0.2307692   0.5384615), wk =   0.0218480
        k(   27) = (   0.4615385  -0.1538462   0.4615385), wk =   0.0218480
        k(   28) = (   0.3846154  -0.0769231   0.3846154), wk =   0.0218480
        k(   29) = (   0.3076923   0.0000000   0.3076923), wk =   0.0109240
        k(   30) = (   0.0000000   0.4615385   0.0000000), wk =   0.0054620
        k(   31) = (  -0.0769231   0.5384615  -0.0769231), wk =   0.0218480
        k(   32) = (  -0.1538462   0.6153846  -0.1538462), wk =   0.0218480
        k(   33) = (  -0.2307692   0.6923077  -0.2307692), wk =   0.0218480
        k(   34) = (   0.6923077  -0.2307692   0.6923077), wk =   0.0218480
        k(   35) = (   0.6153846  -0.1538462   0.6153846), wk =   0.0218480
        k(   36) = (   0.5384615  -0.0769231   0.5384615), wk =   0.0218480
        k(   37) = (   0.4615385   0.0000000   0.4615385), wk =   0.0109240
        k(   38) = (   0.0000000   0.6153846   0.0000000), wk =   0.0054620
        k(   39) = (  -0.0769231   0.6923077  -0.0769231), wk =   0.0218480
        k(   40) = (  -0.1538462   0.7692308  -0.1538462), wk =   0.0218480
        k(   41) = (   0.7692308  -0.1538462   0.7692308), wk =   0.0218480
        k(   42) = (   0.6923077  -0.0769231   0.6923077), wk =   0.0218480
        k(   43) = (   0.6153846   0.0000000   0.6153846), wk =   0.0109240
        k(   44) = (   0.0000000   0.7692308   0.0000000), wk =   0.0054620
        k(   45) = (  -0.0769231   0.8461538  -0.0769231), wk =   0.0218480
        k(   46) = (   0.8461538  -0.0769231   0.8461538), wk =   0.0218480
        k(   47) = (   0.7692308   0.0000000   0.7692308), wk =   0.0109240
        k(   48) = (   0.0000000   0.9230769   0.0000000), wk =   0.0054620
        k(   49) = (   0.9230769   0.0000000   0.9230769), wk =   0.0109240
        k(   50) = (  -0.1538462   0.3076923   0.0000000), wk =   0.0218480
        k(   51) = (  -0.2307692   0.3846154  -0.0769231), wk =   0.0436959
        k(   52) = (  -0.3076923   0.4615385  -0.1538462), wk =   0.0436959
        k(   53) = (  -0.3846154   0.5384615  -0.2307692), wk =   0.0436959
        k(   54) = (   0.5384615  -0.3846154   0.6923077), wk =   0.0436959
        k(   55) = (  -0.1538462   0.4615385   0.0000000), wk =   0.0218480
        k(   56) = (  -0.2307692   0.5384615  -0.0769231), wk =   0.0436959
        k(   57) = (  -0.3076923   0.6153846  -0.1538462), wk =   0.0436959
        k(   58) = (   0.6153846  -0.3076923   0.7692308), wk =   0.0436959
        k(   59) = (   0.5384615  -0.2307692   0.6923077), wk =   0.0436959
        k(   60) = (   0.4615385  -0.1538462   0.6153846), wk =   0.0436959
        k(   61) = (   0.3846154  -0.0769231   0.5384615), wk =   0.0436959
        k(   62) = (   0.3076923   0.0000000   0.4615385), wk =   0.0218480
        k(   63) = (  -0.1538462   0.6153846   0.0000000), wk =   0.0218480
        k(   64) = (  -0.2307692   0.6923077  -0.0769231), wk =   0.0436959
        k(   65) = (   0.6923077  -0.2307692   0.8461538), wk =   0.0436959
        k(   66) = (   0.6153846  -0.1538462   0.7692308), wk =   0.0436959
        k(   67) = (   0.5384615  -0.0769231   0.6923077), wk =   0.0436959
        k(   68) = (   0.4615385   0.0000000   0.6153846), wk =   0.0218480
        k(   69) = (  -0.1538462   0.7692308   0.0000000), wk =   0.0218480
        k(   70) = (   0.7692308  -0.1538462   0.9230769), wk =   0.0436959
        k(   71) = (   0.6923077  -0.0769231   0.8461538), wk =   0.0436959
        k(   72) = (   0.6153846   0.0000000   0.7692308), wk =   0.0218480
        k(   73) = (   0.8461538  -0.0769231   1.0000000), wk =   0.0218480
        k(   74) = (   0.7692308   0.0000000   0.9230769), wk =   0.0218480
        k(   75) = (  -0.3076923   0.6153846   0.0000000), wk =   0.0218480
        k(   76) = (   0.6153846  -0.3076923   0.9230769), wk =   0.0436959
        k(   77) = (   0.5384615  -0.2307692   0.8461538), wk =   0.0436959
        k(   78) = (   0.6923077  -0.2307692   1.0000000), wk =   0.0218480
        k(   79) = (   0.6153846  -0.1538462   0.9230769), wk =   0.0436959
        k(   80) = (   0.5384615  -0.0769231   0.8461538), wk =   0.0436959
        k(   81) = (   0.4615385   0.0000000   0.7692308), wk =   0.0218480
        k(   82) = (   0.6923077  -0.0769231   1.0000000), wk =   0.0218480
        k(   83) = (   0.6153846   0.0000000   0.9230769), wk =   0.0218480
        k(   84) = (   0.5384615  -0.0769231   1.0000000), wk =   0.0218480

     Dense  grid:    30731 G-vectors     FFT dimensions: (  45,  45,  45)

     Largest allocated arrays     est. size (Mb)     dimensions
        Kohn-Sham Wavefunctions         0.22 Mb     (    977,   15)
        NL pseudopotentials             0.54 Mb     (    977,   36)
        Each V/rho on FFT grid          0.37 Mb     (  24300)
        Each G-vector array             0.06 Mb     (   7683)
        G-vector shells                 0.00 Mb     (    319)
     Largest temporary arrays     est. size (Mb)     dimensions
        Auxiliary wavefunctions         0.89 Mb     (    977,   60)
        Each subspace H/S matrix        0.05 Mb     (  60,  60)
        Each <psi_i|beta_j> matrix      0.01 Mb     (     36,   15)
        Arrays for rho mixing           2.97 Mb     (  24300,   8)

     Check: negative/imaginary core charge=   -0.000024    0.000000

     Initial potential from superposition of free atoms

     starting charge   21.99954, renormalised to   22.00000
     Starting wfc are   18 randomized atomic wfcs
     Checking if some PAW data can be deallocated... 

     total cpu time spent up to now is        7.9 secs

     per-process dynamical memory:    16.2 Mb

     Self-consistent Calculation

     iteration #  1     ecut=    90.00 Ry     beta=0.70
     Davidson diagonalization with overlap
     ethr =  1.00E-02,  avg # of iterations =  3.9

     Threshold (ethr) on eigenvalues was too large:
     Diagonalizing with lowered threshold

     Davidson diagonalization with overlap
     ethr =  1.05E-04,  avg # of iterations =  3.4

     total cpu time spent up to now is       39.5 secs

     total energy              =    -426.02684719 Ry
     Harris-Foulkes estimate   =    -426.04141324 Ry
     estimated scf accuracy    <       0.02172173 Ry

     iteration #  2     ecut=    90.00 Ry     beta=0.70
     Davidson diagonalization with overlap
     ethr =  9.87E-05,  avg # of iterations =  3.0

     total cpu time spent up to now is       58.1 secs

     total energy              =    -426.01094316 Ry
     Harris-Foulkes estimate   =    -426.07121349 Ry
     estimated scf accuracy    <       0.21474450 Ry

     iteration #  3     ecut=    90.00 Ry     beta=0.70
     Davidson diagonalization with overlap
     ethr =  9.87E-05,  avg # of iterations =  3.0

     total cpu time spent up to now is       75.4 secs

     total energy              =    -426.03793328 Ry
     Harris-Foulkes estimate   =    -426.03996727 Ry
     estimated scf accuracy    <       0.00424868 Ry

     iteration #  4     ecut=    90.00 Ry     beta=0.70
     Davidson diagonalization with overlap
     ethr =  1.93E-05,  avg # of iterations =  2.3

     total cpu time spent up to now is       90.8 secs

     total energy              =    -426.03896786 Ry
     Harris-Foulkes estimate   =    -426.03966562 Ry
     estimated scf accuracy    <       0.00243847 Ry

     iteration #  5     ecut=    90.00 Ry     beta=0.70
     Davidson diagonalization with overlap
     ethr =  1.11E-05,  avg # of iterations =  1.1

     total cpu time spent up to now is      103.0 secs

     total energy              =    -426.03925578 Ry
     Harris-Foulkes estimate   =    -426.03926078 Ry
     estimated scf accuracy    <       0.00001696 Ry

     iteration #  6     ecut=    90.00 Ry     beta=0.70
     Davidson diagonalization with overlap
     ethr =  7.71E-08,  avg # of iterations =  3.1

     total cpu time spent up to now is      121.2 secs

     total energy              =    -426.03928149 Ry
     Harris-Foulkes estimate   =    -426.03928257 Ry
     estimated scf accuracy    <       0.00000524 Ry

     iteration #  7     ecut=    90.00 Ry     beta=0.70
     Davidson diagonalization with overlap
     ethr =  2.38E-08,  avg # of iterations =  1.0

     total cpu time spent up to now is      133.6 secs

     total energy              =    -426.03928168 Ry
     Harris-Foulkes estimate   =    -426.03928183 Ry
     estimated scf accuracy    <       0.00000072 Ry

     iteration #  8     ecut=    90.00 Ry     beta=0.70
     Davidson diagonalization with overlap
     ethr =  3.26E-09,  avg # of iterations =  2.0

     total cpu time spent up to now is      147.0 secs

     End of self-consistent calculation

          k = 0.0000 0.0000 0.0000 (  3839 PWs)   bands (ev):

     0.6721   3.9799   3.9799   3.9799   4.0024   4.0024   5.0351   5.0351
     5.0351   5.6590   5.6590  16.3858  16.3858  16.3858  17.3284

          k =-0.0769 0.0769-0.0769 (  3803 PWs)   bands (ev):

     0.7629   3.9237   3.9237   3.9817   4.0734   4.0734   5.0163   5.0319
     5.0319   5.6595   5.6595  14.8949  15.9289  15.9289  17.8034

          k =-0.1538 0.1538-0.1538 (  3795 PWs)   bands (ev):

     1.0314   3.8824   3.8824   3.9888   4.1512   4.1512   4.9654   5.0298
     5.0298   5.6589   5.6589  12.9251  15.2797  15.2797  17.7238

          k =-0.2308 0.2308-0.2308 (  3807 PWs)   bands (ev):

     1.4627   3.8700   3.8700   4.0047   4.2015   4.2015   4.9022   5.0477
     5.0477   5.6522   5.6522  11.0424  14.7109  14.7109  17.5859

          k =-0.3077 0.3077-0.3077 (  3819 PWs)   bands (ev):

     2.0190   3.8865   3.8865   4.0283   4.2052   4.2052   4.8711   5.0988
     5.0988   5.6348   5.6348   9.3238  14.2619  14.2619  17.5308

          k =-0.3846 0.3846-0.3846 (  3834 PWs)   bands (ev):

     2.6045   3.9270   3.9270   4.0425   4.1666   4.1666   4.9709   5.1710
     5.1710   5.6070   5.6070   7.8238  13.9510  13.9510  17.5756

          k =-0.4615 0.4615-0.4615 (  3819 PWs)   bands (ev):

     3.0126   3.9755   3.9755   4.0312   4.1143   4.1143   5.2278   5.2278
     5.3121   5.5810   5.5810   6.6793  13.7916  13.7916  17.6917

          k = 0.0000 0.1538 0.0000 (  3803 PWs)   bands (ev):

     0.7933   3.8706   3.9852   3.9852   4.0288   4.1173   4.9605   5.0567
     5.0567   5.6374   5.6794  15.2357  15.2357  15.7496  16.7970

          k =-0.0769 0.2308-0.0769 (  3807 PWs)   bands (ev):

     1.0030   3.8214   3.9567   3.9908   4.0977   4.1873   4.8869   5.0674
     5.0785   5.6167   5.6944  13.5844  14.5685  15.4132  16.9935

          k =-0.1538 0.3077-0.1538 (  3804 PWs)   bands (ev):

     1.3813   3.7970   3.9406   4.0001   4.1574   4.2499   4.8205   5.0678
     5.1107   5.5963   5.7019  11.6921  14.0214  14.8444  17.3124

          k =-0.2308 0.3846-0.2308 (  3820 PWs)   bands (ev):

     1.8999   3.8017   3.9492   4.0157   4.1758   4.2750   4.7883   5.0886
     5.1630   5.5741   5.6976   9.9234  13.6294  14.2591  17.1200

          k =-0.3077 0.4615-0.3077 (  3829 PWs)   bands (ev):

     2.4870   3.8312   3.9755   4.0302   4.1553   4.2508   4.8393   5.1669
     5.2202   5.5559   5.6772   8.3439  13.4140  13.7333  16.9152

          k =-0.3846 0.5385-0.3846 (  3807 PWs)   bands (ev):

     2.9753   3.8719   3.9899   4.0323   4.1361   4.1947   5.0109   5.2389
     5.3767   5.5627   5.6416   7.0352  13.3160  13.3886  16.8624

          k = 0.5385-0.3846 0.5385 (  3825 PWs)   bands (ev):

     3.1225   3.9085   3.9511   4.0503   4.1297   4.1706   5.1261   5.1938
     5.5744   5.6028   5.6345   6.4856  13.0462  13.5549  16.9835

          k = 0.4615-0.3077 0.4615 (  3817 PWs)   bands (ev):

     2.8366   3.8914   3.9418   4.0594   4.1108   4.2295   5.0211   5.1115
     5.3391   5.5563   5.6494   7.4365  12.9489  13.9008  17.2754

          k = 0.3846-0.2308 0.3846 (  3820 PWs)   bands (ev):

     2.2895   3.8427   3.9425   4.0259   4.1523   4.2735   4.8690   5.0298
     5.2486   5.5617   5.6825   8.8507  13.0328  14.3996  17.7168

          k = 0.3077-0.1538 0.3077 (  3809 PWs)   bands (ev):

     1.7132   3.8180   3.9257   4.0054   4.1689   4.2753   4.8555   4.9812
     5.1795   5.5855   5.6970  10.5002  13.2925  15.0122  18.0634

          k = 0.2308-0.0769 0.2308 (  3819 PWs)   bands (ev):

     1.2368   3.8234   3.9207   3.9946   4.1440   4.2280   4.9032   4.9773
     5.1253   5.6114   5.6948  12.3208  13.7140  15.6773  18.0468

          k = 0.1538 0.0000 0.1538 (  3793 PWs)   bands (ev):

     0.9132   3.8601   3.9308   3.9889   4.0927   4.1519   4.9656   5.0016
     5.0798   5.6364   5.6803  14.1599  14.3527  16.1920  17.5855

          k = 0.0000 0.3077 0.0000 (  3823 PWs)   bands (ev):

     1.1533   3.7630   3.9979   3.9979   4.1062   4.2428   4.7707   5.1236
     5.1236   5.5736   5.7190  13.8744  13.8744  14.4476  16.0007

          k =-0.0769 0.3846-0.0769 (  3823 PWs)   bands (ev):

     1.4747   3.7267   3.9952   4.0037   4.1663   4.3048   4.6668   5.1594
     5.1723   5.5337   5.7358  12.3622  13.2993  14.0274  16.1142

          k =-0.1538 0.4615-0.1538 (  3823 PWs)   bands (ev):

     1.9451   3.7187   3.9970   4.0069   4.2072   4.3446   4.6090   5.1928
     5.2268   5.5028   5.7451  10.6105  12.8885  13.4055  16.1938

          k =-0.2308 0.5385-0.2308 (  3821 PWs)   bands (ev):

     2.5083   3.7355   4.0025   4.0061   4.2201   4.3286   4.6454   5.2580
     5.2711   5.5028   5.7436   8.9855  12.6717  12.7496  16.0565

          k =-0.3077 0.6154-0.3077 (  3818 PWs)   bands (ev):

     3.0299   3.7632   3.9893   4.0022   4.2342   4.2760   4.7873   5.2246
     5.4794   5.5541   5.7378   7.5641  12.1769  12.6681  16.0320

          k = 0.6154-0.3077 0.6154 (  3825 PWs)   bands (ev):

     3.2878   3.7938   3.9439   4.0159   4.2053   4.2745   4.9630   5.1426
     5.6236   5.6347   6.0246   6.5073  11.7464  12.8827  16.1652

          k = 0.5385-0.2308 0.5385 (  3827 PWs)   bands (ev):

     3.1388   3.8554   3.8835   4.0615   4.1241   4.3292   5.0297   5.0430
     5.5591   5.6389   5.6806   7.1898  11.4936  13.3028  16.4591

          k = 0.4615-0.1538 0.4615 (  3819 PWs)   bands (ev):

     2.6782   3.8298   3.9155   4.0466   4.1149   4.3696   4.9227   4.9564
     5.4044   5.5150   5.7153   8.5234  11.4361  13.8978  16.9144

          k = 0.3846-0.0769 0.3846 (  3814 PWs)   bands (ev):

     2.1135   3.7972   3.9544   3.9903   4.1503   4.3646   4.8447   4.9162
     5.3287   5.5098   5.7273  10.0914  11.5773  14.6133  17.5295

          k = 0.3077 0.0000 0.3077 (  3823 PWs)   bands (ev):

     1.6078   3.7940   3.9455   3.9874   4.1559   4.3083   4.8497   4.9314
     5.2293   5.5571   5.7191  11.7048  12.0242  15.3280  18.3480

          k = 0.0000 0.4615 0.0000 (  3823 PWs)   bands (ev):

     1.7384   3.6773   4.0108   4.0108   4.2289   4.3612   4.5212   5.2381
     5.2381   5.4700   5.7608  12.6781  12.6781  12.8190  15.3605

          k =-0.0769 0.5385-0.0769 (  3832 PWs)   bands (ev):

     2.1544   3.6572   4.0097   4.0137   4.2937   4.3973   4.4302   5.2976
     5.3017   5.4240   5.7843  11.2344  12.2176  12.3626  15.4466

          k =-0.1538 0.6154-0.1538 (  3827 PWs)   bands (ev):

     2.6759   3.6645   3.9888   4.0115   4.3374   4.3455   4.4870   5.2727
     5.3866   5.4684   5.8094   9.6792  11.6518  11.9570  15.4462

          k =-0.2308 0.6923-0.2308 (  3821 PWs)   bands (ev):

     3.1883   3.6855   3.9607   3.9943   4.3134   4.3711   4.6009   5.1870
     5.5596   5.5600   5.8591   8.2368  10.9706  11.9225  15.4337

          k = 0.6923-0.2308 0.6923 (  3832 PWs)   bands (ev):

     3.4946   3.7090   3.9550   3.9606   4.2585   4.4120   4.7862   5.0803
     5.6420   5.6988   6.2174   6.9965  10.4234  12.1223  15.5510

          k = 0.6154-0.1538 0.6154 (  3828 PWs)   bands (ev):

     3.4415   3.7859   3.9004   4.0022   4.1760   4.4583   4.9451   4.9694
     5.6710   5.6999   6.0574   7.1158  10.0554  12.5428  15.8141

          k = 0.5385-0.0769 0.5385 (  3825 PWs)   bands (ev):

     3.1122   3.8467   3.8547   4.0625   4.0937   4.4824   4.8864   4.9895
     5.5303   5.6047   5.7317   8.3566   9.8978  13.1491  16.2291

          k = 0.4615 0.0000 0.4615 (  3815 PWs)   bands (ev):

     2.6159   3.8086   3.9127   4.0279   4.1180   4.4470   4.8720   4.9047
     5.4516   5.4729   5.7398   9.6739  10.1078  13.8814  16.8013

          k = 0.0000 0.6154 0.0000 (  3832 PWs)   bands (ev):

     2.5135   3.6268   4.0187   4.0187   4.2568   4.3885   4.4591   5.3308
     5.3906   5.3906   5.8281  11.0047  11.6954  11.6954  14.9222

          k =-0.0769 0.6923-0.0769 (  3835 PWs)   bands (ev):

     2.9800   3.6278   3.9899   4.0178   4.1896   4.4641   4.4907   5.2386
     5.4772   5.4864   5.8911   9.9500  10.9913  11.3718  15.0050

          k =-0.1538 0.7692-0.1538 (  3840 PWs)   bands (ev):

     3.4462   3.6485   3.9201   4.0055   4.2383   4.5189   4.5203   5.1315
     5.5822   5.6059   6.0134   8.8084  10.0801  11.2822  15.0204

          k = 0.7692-0.1538 0.7692 (  3836 PWs)   bands (ev):

     3.6559   3.7395   3.8967   3.9764   4.2713   4.5682   4.6296   5.0122
     5.6582   5.7321   6.3704   7.6965   9.3338  11.4408  15.1119

          k = 0.6923-0.0769 0.6923 (  3825 PWs)   bands (ev):

     3.6187   3.8292   3.9288   3.9328   4.2167   4.6047   4.8078   4.8978
     5.7069   5.7603   6.5890   7.2845   8.8270  11.8340  15.3366

          k = 0.6154 0.0000 0.6154 (  3833 PWs)   bands (ev):

     3.4619   3.8261   3.8850   3.9944   4.1482   4.5819   4.8474   4.9442
     5.7076   5.7300   5.9173   8.1823   8.7413  12.4238  15.7057

          k = 0.0000 0.7692 0.0000 (  3840 PWs)   bands (ev):

     3.3821   3.6263   4.0142   4.0213   4.0213   4.5089   4.5739   5.1623
     5.5476   5.5476   6.0129   9.2230  10.9777  10.9777  14.6754

          k =-0.0769 0.8462-0.0769 (  3851 PWs)   bands (ev):

     3.6520   3.7713   3.8808   4.0166   4.1040   4.4979   4.6589   5.0608
     5.6173   5.6295   6.2252   8.4064  10.2984  10.8203  14.7582

          k = 0.8462-0.0769 0.8462 (  3835 PWs)   bands (ev):

     3.6730   3.8146   3.9542   3.9992   4.2575   4.5041   4.7237   4.9411
     5.6704   5.7230   6.6388   7.7127   9.2623  10.9224  14.8261

          k = 0.7692 0.0000 0.7692 (  3835 PWs)   bands (ev):

     3.6537   3.8518   3.9516   3.9692   4.2567   4.6481   4.7320   4.8547
     5.6989   5.7780   7.0609   7.3325   8.4312  11.2737  15.0116

          k = 0.0000 0.9231 0.0000 (  3844 PWs)   bands (ev):

     3.6881   3.8173   4.0214   4.0214   4.1057   4.4431   4.7729   4.9729
     5.6522   5.6522   6.5514   7.6668  10.5910  10.5910  14.6068

          k = 0.9231 0.0000 0.9231 (  3848 PWs)   bands (ev):

     3.7226   3.7575   4.0156   4.0225   4.3145   4.3663   4.8545   4.8707
     5.6712   5.6878   7.0610   7.0672  10.0808  10.6264  14.6792

          k =-0.1538 0.3077 0.0000 (  3818 PWs)   bands (ev):

     1.2684   3.7788   3.9643   3.9963   4.1350   4.2550   4.7968   5.0587
     5.1505   5.5806   5.7141  12.8853  13.1375  15.2157  16.9355

          k =-0.2308 0.3846-0.0769 (  3806 PWs)   bands (ev):

     1.6935   3.7624   3.9706   3.9968   4.1686   4.3166   4.7328   5.0536
     5.2249   5.5425   5.7262  11.1710  12.5849  14.6389  17.1866

          k =-0.3077 0.4615-0.1538 (  3823 PWs)   bands (ev):

     2.2378   3.7744   3.9683   4.0167   4.1688   4.3373   4.7319   5.0817
     5.2985   5.5164   5.7248   9.4783  12.2911  13.9588  17.0196

          k =-0.3846 0.5385-0.2308 (  3816 PWs)   bands (ev):

     2.8012   3.8060   3.9456   4.0546   4.1497   4.3073   4.8308   5.1531
     5.3806   5.5339   5.7062   7.9763  12.1664  13.3706  16.8581

          k = 0.5385-0.3846 0.6923 (  3814 PWs)   bands (ev):

     3.1849   3.8306   3.9186   4.0603   4.1679   4.2541   4.9846   5.1627
     5.5833   5.6320   5.7562   6.7654  12.1689  12.9945  16.7848

          k =-0.1538 0.4615 0.0000 (  3825 PWs)   bands (ev):

     1.8435   3.6982   3.9982   4.0094   4.2160   4.3645   4.5628   5.1781
     5.2685   5.4826   5.7552  11.6994  12.0546  13.5673  16.2090

          k =-0.2308 0.5385-0.0769 (  3831 PWs)   bands (ev):

     2.3421   3.6979   3.9744   4.0267   4.2454   4.3990   4.5316   5.1999
     5.3563   5.4553   5.7703  10.1713  11.5656  12.9235  16.3514

          k =-0.3077 0.6154-0.1538 (  3836 PWs)   bands (ev):

     2.8886   3.7181   3.9380   4.0419   4.2574   4.3719   4.6208   5.2043
     5.4385   5.5214   5.7807   8.6399  11.3283  12.3327  16.2834

          k = 0.6154-0.3077 0.7692 (  3829 PWs)   bands (ev):

     3.3146   3.7380   3.9024   4.0436   4.2652   4.3381   4.7874   5.1348
     5.6004   5.6608   5.8961   7.3055  11.1066  12.0628  16.3298

          k = 0.5385-0.2308 0.6923 (  3829 PWs)   bands (ev):

     3.4249   3.7659   3.8755   4.0504   4.2192   4.3622   4.9173   5.0557
     5.6516   5.6792   6.2498   6.6288  10.8414  12.2186  16.5152

          k = 0.4615-0.1538 0.6154 (  3821 PWs)   bands (ev):

     3.1723   3.7981   3.8708   4.0762   4.1535   4.4096   4.8334   5.0912
     5.5578   5.6242   5.7499   7.7681  10.6722  12.6690  16.8336

          k = 0.3846-0.0769 0.5385 (  3825 PWs)   bands (ev):

     2.6865   3.7725   3.9171   4.0519   4.1523   4.4300   4.7186   5.0730
     5.4307   5.4931   5.7488   9.1796  10.6837  13.3078  17.2670

          k = 0.3077 0.0000 0.4615 (  3814 PWs)   bands (ev):

     2.1488   3.7542   3.9633   4.0073   4.1717   4.3912   4.6879   5.0437
     5.3524   5.4808   5.7444  10.6349  11.0308  14.0396  17.7664

          k =-0.1538 0.6154 0.0000 (  3841 PWs)   bands (ev):

     2.5979   3.6464   3.9819   4.0282   4.3299   4.3575   4.4587   5.2788
     5.4152   5.4214   5.8204  10.5307  11.1647  11.9027  15.6898

          k =-0.2308 0.6923-0.0769 (  3825 PWs)   bands (ev):

     3.1012   3.6605   3.9260   4.0358   4.3252   4.3982   4.5097   5.1965
     5.5058   5.5380   5.8755   9.2897  10.5794  11.3809  15.8105

          k = 0.6923-0.2308 0.8462 (  3838 PWs)   bands (ev):

     3.5110   3.6792   3.8817   4.0293   4.3211   4.4483   4.6189   5.0879
     5.6239   5.6810   6.0557   7.9980  10.0572  11.2394  15.8577

          k = 0.6154-0.1538 0.7692 (  3831 PWs)   bands (ev):

     3.6309   3.7350   3.8657   4.0234   4.2663   4.5002   4.7872   4.9732
     5.6883   5.7389   6.6020   6.9551   9.5899  11.4559  16.0396

          k = 0.5385-0.0769 0.6923 (  3831 PWs)   bands (ev):

     3.4939   3.7988   3.8409   4.0470   4.1909   4.5382   4.8034   4.9844
     5.6928   5.7210   6.0272   7.7419   9.2946  11.9208  16.3642

          k = 0.4615 0.0000 0.6154 (  3827 PWs)   bands (ev):

     3.1546   3.7939   3.8578   4.0785   4.1386   4.5186   4.7332   5.0627
     5.5412   5.6065   5.7675   8.8666   9.3821  12.5649  16.8186

          k =-0.1538 0.7692 0.0000 (  3825 PWs)   bands (ev):

     3.4180   3.6393   3.9169   4.0319   4.1730   4.4964   4.5530   5.1434
     5.5666   5.5758   6.0114   9.1510  10.5183  10.7678  15.3798

          k = 0.7692-0.1538 0.9231 (  3832 PWs)   bands (ev):

     3.6639   3.7420   3.8580   4.0299   4.2672   4.5036   4.6195   5.0267
     5.6514   5.6849   6.2719   8.3196   9.5947  10.6165  15.5095

          k = 0.6923-0.0769 0.8462 (  3830 PWs)   bands (ev):

     3.6632   3.8009   3.9169   4.0132   4.2959   4.6133   4.6790   4.9023
     5.7012   5.7671   6.7895   7.5420   8.7551  10.8310  15.6587

          k = 0.6154 0.0000 0.7692 (  3821 PWs)   bands (ev):

     3.6323   3.8253   3.8783   4.0146   4.2416   4.6563   4.7512   4.8682
     5.7218   5.7729   6.6034   7.6940   8.4049  11.2846  15.9459

          k = 0.8462-0.0769 1.0000 (  3837 PWs)   bands (ev):

     3.6879   3.7901   3.9726   4.0292   4.2240   4.4520   4.7493   4.9532
     5.6768   5.6770   6.5905   7.7090  10.1863  10.2457  15.2664

          k = 0.7692 0.0000 0.9231 (  3836 PWs)   bands (ev):

     3.6919   3.7633   4.0079   4.0139   4.3336   4.4765   4.8010   4.8452
     5.6999   5.7384   7.1516   7.1722   9.2511  10.4025  15.4129

          k =-0.3077 0.6154 0.0000 (  3828 PWs)   bands (ev):

     2.8322   3.7040   3.9172   4.0530   4.2622   4.4764   4.5068   5.1810
     5.4469   5.5018   5.7983   9.6909  10.2314  12.2360  17.3295

          k = 0.6154-0.3077 0.9231 (  3833 PWs)   bands (ev):

     3.2972   3.7246   3.8626   4.0671   4.2746   4.4686   4.6230   5.1107
     5.5865   5.6296   5.8612   8.4520   9.9442  11.5853  17.2249

          k = 0.5385-0.2308 0.8462 (  3831 PWs)   bands (ev):

     3.5778   3.7245   3.8393   4.0639   4.2981   4.4418   4.7782   5.0050
     5.6790   5.7254   6.2859   7.2454   9.9535  11.1686  17.1838

          k = 0.6923-0.2308 1.0000 (  3823 PWs)   bands (ev):

     3.5035   3.6784   3.8553   4.0557   4.3917   4.4151   4.5551   5.0854
     5.6306   5.6439   6.0259   8.8035   9.6719  10.6345  16.9593

          k = 0.6154-0.1538 0.9231 (  3828 PWs)   bands (ev):

     3.6906   3.7062   3.8625   4.0550   4.3908   4.5066   4.6409   4.9576
     5.7069   5.7430   6.4365   7.9052   9.2455  10.2470  17.0584

          k = 0.5385-0.0769 0.8462 (  3825 PWs)   bands (ev):

     3.6743   3.7427   3.8860   4.0526   4.3475   4.5692   4.7257   4.8782
     5.7311   5.7695   6.7612   7.4382   8.9206  10.3952  17.2632

          k = 0.4615 0.0000 0.7692 (  3840 PWs)   bands (ev):

     3.5886   3.7431   3.8369   4.0662   4.3022   4.5931   4.6221   4.9874
     5.7126   5.7199   6.1695   8.2287   8.9084  10.8908  17.5260

          k = 0.6923-0.0769 1.0000 (  3827 PWs)   bands (ev):

     3.6922   3.7373   3.9538   4.0419   4.4030   4.4734   4.6973   4.8977
     5.7289   5.7307   6.7298   7.7822   9.4338   9.6744  16.7858

          k = 0.6154 0.0000 0.9231 (  3819 PWs)   bands (ev):

     3.6824   3.7369   3.9823   4.0308   4.3993   4.5821   4.7297   4.7986
     5.7433   5.7777   7.1902   7.4145   8.7084   9.8425  16.9867

          k = 0.5385-0.0769 1.0000 (  3830 PWs)   bands (ev):

     3.6979   3.7084   3.9611   4.0436   4.4658   4.5553   4.6779   4.8219
     5.7596   5.7740   6.9856   7.6952   8.8266   9.4894  18.2554

     the Fermi energy is     6.7812 ev

!    total energy              =    -426.03928176 Ry
     Harris-Foulkes estimate   =    -426.03928178 Ry
     estimated scf accuracy    <       0.00000003 Ry

     total all-electron energy =     -6619.798818 Ry

     The total energy is the sum of the following terms:

     one-electron contribution =    -116.83867540 Ry
     hartree contribution      =      57.87960328 Ry
     xc contribution           =     -73.47333503 Ry
     ewald contribution        =    -127.80442418 Ry
     one-center paw contrib.   =    -165.80235029 Ry
     smearing contrib. (-TS)   =      -0.00010013 Ry

     convergence has been achieved in   8 iterations

     Writing output data file Cu.save

     init_run     :      6.70s CPU      6.98s WALL (       1 calls)
     electrons    :    135.58s CPU    139.19s WALL (       1 calls)

     Called by init_run:
     wfcinit      :      5.26s CPU      5.47s WALL (       1 calls)
     potinit      :      0.43s CPU      0.45s WALL (       1 calls)

     Called by electrons:
     c_bands      :    111.25s CPU    114.11s WALL (       9 calls)
     sum_band     :     19.73s CPU     20.26s WALL (       9 calls)
     v_of_rho     :      0.43s CPU      0.44s WALL (       9 calls)
     newd         :      0.88s CPU      0.91s WALL (       9 calls)
     mix_rho      :      0.51s CPU      0.53s WALL (       9 calls)

     Called by c_bands:
     init_us_2    :      2.33s CPU      2.44s WALL (    1596 calls)
     cegterg      :    105.29s CPU    107.82s WALL (     756 calls)

     Called by *egterg:
     h_psi        :     94.34s CPU     96.62s WALL (    2763 calls)
     s_psi        :      2.58s CPU      2.60s WALL (    2763 calls)
     g_psi        :      0.72s CPU      0.74s WALL (    1923 calls)
     cdiaghg      :      3.36s CPU      3.42s WALL (    2595 calls)

     Called by h_psi:
     add_vuspsi   :      2.59s CPU      2.63s WALL (    2763 calls)

     General routines
     calbec       :      3.48s CPU      3.50s WALL (    3519 calls)
     fft          :      0.19s CPU      0.22s WALL (     119 calls)
     fftw         :     93.37s CPU     95.95s WALL (   74564 calls)
     davcio       :      0.43s CPU      0.44s WALL (    2352 calls)

     Parallel routines
     fft_scatter  :     22.46s CPU     22.70s WALL (   74683 calls)

     PAW routines
     PAW_pot      :      3.20s CPU      3.36s WALL (       9 calls)
     PAW_ddot     :      0.47s CPU      0.49s WALL (      86 calls)
     PAW_symme    :      0.01s CPU      0.01s WALL (      18 calls)

     PWSCF        :  2m23.59s CPU     2m27.52s WALL


   This run was terminated on:  20:57:23  11Jul2015            

=------------------------------------------------------------------------------=
   JOB DONE.
=------------------------------------------------------------------------------=
