
     Program PWSCF v.5.0.2 (svn rev. 9656) starts on 12Jul2015 at  1:33: 0 

     This program is part of the open-source Quantum ESPRESSO suite
     for quantum simulation of materials; please cite
         "P. Giannozzi et al., J. Phys.:Condens. Matter 21 395502 (2009);
          URL http://www.quantum-espresso.org", 
     in publications or presentations arising from this work. More details at
     http://www.quantum-espresso.org/quote.php

     Parallel version (MPI), running on     4 processors
     R & G space division:  proc/nbgrp/npool/nimage =       4

     Current dimensions of program PWSCF are:
     Max number of different atomic species (ntypx) = 10
     Max number of k-points (npk) =  40000
     Max angular momentum in pseudopotentials (lmaxx) =  3
     Waiting for input...
     Reading input from standard input
               file Al.pbe-n-kjpaw_psl.0.1.UPF: wavefunction(s)  3S renormalized

     Subspace diagonalization in iterative solution of the eigenvalue problem:
     a serial algorithm will be used


     Parallelization info
     --------------------
     sticks:   dense  smooth     PW     G-vecs:    dense   smooth      PW
     Min         124     124     40                 1743     1743     322
     Max         126     126     42                 1744     1744     323
     Sum         499     499    163                 6975     6975    1291



     bravais-lattice index     =            2
     lattice parameter (alat)  =       7.6500  a.u.
     unit-cell volume          =     111.9243 (a.u.)^3
     number of atoms/cell      =            1
     number of atomic types    =            1
     number of electrons       =         3.00
     number of Kohn-Sham states=            6
     kinetic-energy cutoff     =      60.0000  Ry
     charge density cutoff     =     240.0000  Ry
     convergence threshold     =      1.0E-07
     mixing beta               =       0.7000
     number of iterations used =            8  plain     mixing
     Exchange-correlation      =  SLA  PW   PBX  PBC ( 1 4 3 4 0)
     EXX-fraction              =        0.00

     celldm(1)=   7.650000  celldm(2)=   0.000000  celldm(3)=   0.000000
     celldm(4)=   0.000000  celldm(5)=   0.000000  celldm(6)=   0.000000

     crystal axes: (cart. coord. in units of alat)
               a(1) = (  -0.500000   0.000000   0.500000 )  
               a(2) = (   0.000000   0.500000   0.500000 )  
               a(3) = (  -0.500000   0.500000   0.000000 )  

     reciprocal axes: (cart. coord. in units 2 pi/alat)
               b(1) = ( -1.000000 -1.000000  1.000000 )  
               b(2) = (  1.000000  1.000000  1.000000 )  
               b(3) = ( -1.000000  1.000000 -1.000000 )  


     PseudoPot. # 1 for Al read from file:
     ./Al.pbe-n-kjpaw_psl.0.1.UPF
     MD5 check sum: 023d9faf819c76fc4df1f064efe7b7b2
     Pseudo is Projector augmented-wave + core cor, Zval =  3.0
     Generated using "atomic" code by A. Dal Corso  v.5.0.2 svn rev. 9415
     Shape of augmentation charge: PSQ
     Using radial grid of 1135 points,  4 beta functions with: 
                l(1) =   0
                l(2) =   0
                l(3) =   1
                l(4) =   1
     Q(r) pseudized with 0 coefficients 


     atomic species   valence    mass     pseudopotential
        Al             3.00    26.98154     Al( 1.00)

     48 Sym. Ops., with inversion, found



   Cartesian axes

     site n.     atom                  positions (alat units)
         1           Al  tau(   1) = (   0.0000000   0.0000000   0.0000000  )

     number of k points=    84  gaussian smearing, width (Ry)=  0.0030
                       cart. coord. in units 2pi/alat
        k(    1) = (   0.0000000   0.0000000   0.0000000), wk =   0.0009103
        k(    2) = (  -0.0769231   0.0769231  -0.0769231), wk =   0.0072827
        k(    3) = (  -0.1538462   0.1538462  -0.1538462), wk =   0.0072827
        k(    4) = (  -0.2307692   0.2307692  -0.2307692), wk =   0.0072827
        k(    5) = (  -0.3076923   0.3076923  -0.3076923), wk =   0.0072827
        k(    6) = (  -0.3846154   0.3846154  -0.3846154), wk =   0.0072827
        k(    7) = (  -0.4615385   0.4615385  -0.4615385), wk =   0.0072827
        k(    8) = (   0.0000000   0.1538462   0.0000000), wk =   0.0054620
        k(    9) = (  -0.0769231   0.2307692  -0.0769231), wk =   0.0218480
        k(   10) = (  -0.1538462   0.3076923  -0.1538462), wk =   0.0218480
        k(   11) = (  -0.2307692   0.3846154  -0.2307692), wk =   0.0218480
        k(   12) = (  -0.3076923   0.4615385  -0.3076923), wk =   0.0218480
        k(   13) = (  -0.3846154   0.5384615  -0.3846154), wk =   0.0218480
        k(   14) = (   0.5384615  -0.3846154   0.5384615), wk =   0.0218480
        k(   15) = (   0.4615385  -0.3076923   0.4615385), wk =   0.0218480
        k(   16) = (   0.3846154  -0.2307692   0.3846154), wk =   0.0218480
        k(   17) = (   0.3076923  -0.1538462   0.3076923), wk =   0.0218480
        k(   18) = (   0.2307692  -0.0769231   0.2307692), wk =   0.0218480
        k(   19) = (   0.1538462   0.0000000   0.1538462), wk =   0.0109240
        k(   20) = (   0.0000000   0.3076923   0.0000000), wk =   0.0054620
        k(   21) = (  -0.0769231   0.3846154  -0.0769231), wk =   0.0218480
        k(   22) = (  -0.1538462   0.4615385  -0.1538462), wk =   0.0218480
        k(   23) = (  -0.2307692   0.5384615  -0.2307692), wk =   0.0218480
        k(   24) = (  -0.3076923   0.6153846  -0.3076923), wk =   0.0218480
        k(   25) = (   0.6153846  -0.3076923   0.6153846), wk =   0.0218480
        k(   26) = (   0.5384615  -0.2307692   0.5384615), wk =   0.0218480
        k(   27) = (   0.4615385  -0.1538462   0.4615385), wk =   0.0218480
        k(   28) = (   0.3846154  -0.0769231   0.3846154), wk =   0.0218480
        k(   29) = (   0.3076923   0.0000000   0.3076923), wk =   0.0109240
        k(   30) = (   0.0000000   0.4615385   0.0000000), wk =   0.0054620
        k(   31) = (  -0.0769231   0.5384615  -0.0769231), wk =   0.0218480
        k(   32) = (  -0.1538462   0.6153846  -0.1538462), wk =   0.0218480
        k(   33) = (  -0.2307692   0.6923077  -0.2307692), wk =   0.0218480
        k(   34) = (   0.6923077  -0.2307692   0.6923077), wk =   0.0218480
        k(   35) = (   0.6153846  -0.1538462   0.6153846), wk =   0.0218480
        k(   36) = (   0.5384615  -0.0769231   0.5384615), wk =   0.0218480
        k(   37) = (   0.4615385   0.0000000   0.4615385), wk =   0.0109240
        k(   38) = (   0.0000000   0.6153846   0.0000000), wk =   0.0054620
        k(   39) = (  -0.0769231   0.6923077  -0.0769231), wk =   0.0218480
        k(   40) = (  -0.1538462   0.7692308  -0.1538462), wk =   0.0218480
        k(   41) = (   0.7692308  -0.1538462   0.7692308), wk =   0.0218480
        k(   42) = (   0.6923077  -0.0769231   0.6923077), wk =   0.0218480
        k(   43) = (   0.6153846   0.0000000   0.6153846), wk =   0.0109240
        k(   44) = (   0.0000000   0.7692308   0.0000000), wk =   0.0054620
        k(   45) = (  -0.0769231   0.8461538  -0.0769231), wk =   0.0218480
        k(   46) = (   0.8461538  -0.0769231   0.8461538), wk =   0.0218480
        k(   47) = (   0.7692308   0.0000000   0.7692308), wk =   0.0109240
        k(   48) = (   0.0000000   0.9230769   0.0000000), wk =   0.0054620
        k(   49) = (   0.9230769   0.0000000   0.9230769), wk =   0.0109240
        k(   50) = (  -0.1538462   0.3076923   0.0000000), wk =   0.0218480
        k(   51) = (  -0.2307692   0.3846154  -0.0769231), wk =   0.0436959
        k(   52) = (  -0.3076923   0.4615385  -0.1538462), wk =   0.0436959
        k(   53) = (  -0.3846154   0.5384615  -0.2307692), wk =   0.0436959
        k(   54) = (   0.5384615  -0.3846154   0.6923077), wk =   0.0436959
        k(   55) = (  -0.1538462   0.4615385   0.0000000), wk =   0.0218480
        k(   56) = (  -0.2307692   0.5384615  -0.0769231), wk =   0.0436959
        k(   57) = (  -0.3076923   0.6153846  -0.1538462), wk =   0.0436959
        k(   58) = (   0.6153846  -0.3076923   0.7692308), wk =   0.0436959
        k(   59) = (   0.5384615  -0.2307692   0.6923077), wk =   0.0436959
        k(   60) = (   0.4615385  -0.1538462   0.6153846), wk =   0.0436959
        k(   61) = (   0.3846154  -0.0769231   0.5384615), wk =   0.0436959
        k(   62) = (   0.3076923   0.0000000   0.4615385), wk =   0.0218480
        k(   63) = (  -0.1538462   0.6153846   0.0000000), wk =   0.0218480
        k(   64) = (  -0.2307692   0.6923077  -0.0769231), wk =   0.0436959
        k(   65) = (   0.6923077  -0.2307692   0.8461538), wk =   0.0436959
        k(   66) = (   0.6153846  -0.1538462   0.7692308), wk =   0.0436959
        k(   67) = (   0.5384615  -0.0769231   0.6923077), wk =   0.0436959
        k(   68) = (   0.4615385   0.0000000   0.6153846), wk =   0.0218480
        k(   69) = (  -0.1538462   0.7692308   0.0000000), wk =   0.0218480
        k(   70) = (   0.7692308  -0.1538462   0.9230769), wk =   0.0436959
        k(   71) = (   0.6923077  -0.0769231   0.8461538), wk =   0.0436959
        k(   72) = (   0.6153846   0.0000000   0.7692308), wk =   0.0218480
        k(   73) = (   0.8461538  -0.0769231   1.0000000), wk =   0.0218480
        k(   74) = (   0.7692308   0.0000000   0.9230769), wk =   0.0218480
        k(   75) = (  -0.3076923   0.6153846   0.0000000), wk =   0.0218480
        k(   76) = (   0.6153846  -0.3076923   0.9230769), wk =   0.0436959
        k(   77) = (   0.5384615  -0.2307692   0.8461538), wk =   0.0436959
        k(   78) = (   0.6923077  -0.2307692   1.0000000), wk =   0.0218480
        k(   79) = (   0.6153846  -0.1538462   0.9230769), wk =   0.0436959
        k(   80) = (   0.5384615  -0.0769231   0.8461538), wk =   0.0436959
        k(   81) = (   0.4615385   0.0000000   0.7692308), wk =   0.0218480
        k(   82) = (   0.6923077  -0.0769231   1.0000000), wk =   0.0218480
        k(   83) = (   0.6153846   0.0000000   0.9230769), wk =   0.0218480
        k(   84) = (   0.5384615  -0.0769231   1.0000000), wk =   0.0218480

     Dense  grid:     6975 G-vectors     FFT dimensions: (  27,  27,  27)

     Largest allocated arrays     est. size (Mb)     dimensions
        Kohn-Sham Wavefunctions         0.02 Mb     (    224,    6)
        NL pseudopotentials             0.03 Mb     (    224,    8)
        Each V/rho on FFT grid          0.08 Mb     (   5103)
        Each G-vector array             0.01 Mb     (   1744)
        G-vector shells                 0.00 Mb     (    121)
     Largest temporary arrays     est. size (Mb)     dimensions
        Auxiliary wavefunctions         0.08 Mb     (    224,   24)
        Each subspace H/S matrix        0.01 Mb     (  24,  24)
        Each <psi_i|beta_j> matrix      0.00 Mb     (      8,    6)
        Arrays for rho mixing           0.62 Mb     (   5103,   8)

     Initial potential from superposition of free atoms

     starting charge    2.99771, renormalised to    3.00000
     Starting wfc are    4 randomized atomic wfcs
     Checking if some PAW data can be deallocated... 

     total cpu time spent up to now is        1.1 secs

     per-process dynamical memory:     9.1 Mb

     Self-consistent Calculation

     iteration #  1     ecut=    60.00 Ry     beta=0.70
     Davidson diagonalization with overlap
     ethr =  1.00E-02,  avg # of iterations =  4.9

     Threshold (ethr) on eigenvalues was too large:
     Diagonalizing with lowered threshold

     Davidson diagonalization with overlap
     ethr =  1.96E-04,  avg # of iterations =  2.2

     total cpu time spent up to now is        3.7 secs

     total energy              =     -39.50271064 Ry
     Harris-Foulkes estimate   =     -39.50410197 Ry
     estimated scf accuracy    <       0.00559312 Ry

     iteration #  2     ecut=    60.00 Ry     beta=0.70
     Davidson diagonalization with overlap
     ethr =  1.86E-04,  avg # of iterations =  1.0

     total cpu time spent up to now is        4.6 secs

     total energy              =     -39.50267384 Ry
     Harris-Foulkes estimate   =     -39.50277879 Ry
     estimated scf accuracy    <       0.00040445 Ry

     iteration #  3     ecut=    60.00 Ry     beta=0.70
     Davidson diagonalization with overlap
     ethr =  1.35E-05,  avg # of iterations =  1.8

     total cpu time spent up to now is        5.6 secs

     total energy              =     -39.50269409 Ry
     Harris-Foulkes estimate   =     -39.50269464 Ry
     estimated scf accuracy    <       0.00000131 Ry

     iteration #  4     ecut=    60.00 Ry     beta=0.70
     Davidson diagonalization with overlap
     ethr =  4.36E-08,  avg # of iterations =  3.2

     total cpu time spent up to now is        6.7 secs

     End of self-consistent calculation

          k = 0.0000 0.0000 0.0000 (   893 PWs)   bands (ev):

    -3.2500  20.4470  20.4470  21.8671  21.8671  21.8671

          k =-0.0769 0.0769-0.0769 (   887 PWs)   bands (ev):

    -3.0897  18.0820  19.9253  19.9253  22.5437  22.6334

          k =-0.1538 0.1538-0.1538 (   899 PWs)   bands (ev):

    -2.6099  14.9841  19.2536  19.2536  22.4178  23.7710

          k =-0.2308 0.2308-0.2308 (   896 PWs)   bands (ev):

    -1.8137  11.9980  18.7934  18.7934  22.1897  22.8941

          k =-0.3077 0.3077-0.3077 (   890 PWs)   bands (ev):

    -0.7063   9.2200  18.5879  18.5879  21.5639  21.5639

          k =-0.3846 0.3846-0.3846 (   872 PWs)   bands (ev):

     0.7054   6.6858  18.6471  18.6471  20.4421  20.4421

          k =-0.4615 0.4615-0.4615 (   874 PWs)   bands (ev):

     2.4108   4.4171  18.9726  18.9726  19.5793  19.5793

          k = 0.0000 0.1538 0.0000 (   889 PWs)   bands (ev):

    -3.0363  18.8738  18.8739  19.1846  21.3770  23.7498

          k =-0.0769 0.2308-0.0769 (   896 PWs)   bands (ev):

    -2.6631  16.0845  18.0426  19.2671  21.6982  23.0615

          k =-0.1538 0.3077-0.1538 (   889 PWs)   bands (ev):

    -1.9726  13.0816  17.4697  18.9361  21.1352  23.3047

          k =-0.2308 0.3846-0.2308 (   878 PWs)   bands (ev):

    -0.9692  10.2430  17.1639  18.6936  19.6587  23.6586

          k =-0.3077 0.4615-0.3077 (   876 PWs)   bands (ev):

     0.3406   7.6317  17.1281  18.3982  18.7005  22.4889

          k =-0.3846 0.5385-0.3846 (   877 PWs)   bands (ev):

     1.9480   5.2761  17.3635  17.4224  18.9576  21.5500

          k = 0.5385-0.3846 0.5385 (   875 PWs)   bands (ev):

     3.1697   3.8668  16.7161  17.8709  19.4973  20.8692

          k = 0.4615-0.3077 0.4615 (   873 PWs)   bands (ev):

     1.3800   6.0307  16.2892  18.6476  20.3106  20.4560

          k = 0.3846-0.2308 0.3846 (   879 PWs)   bands (ev):

    -0.1296   8.4725  16.1440  19.6705  20.3292  21.3844

          k = 0.3077-0.1538 0.3077 (   882 PWs)   bands (ev):

    -1.3381  11.1587  16.2825  20.3476  21.0534  22.6777

          k = 0.2308-0.0769 0.2308 (   897 PWs)   bands (ev):

    -2.2378  14.0400  16.7162  20.6929  22.3768  23.2033

          k = 0.1538 0.0000 0.1538 (   899 PWs)   bands (ev):

    -2.8229  16.7935  17.6696  20.8622  22.1106  23.0845

          k = 0.0000 0.3077 0.0000 (   881 PWs)   bands (ev):

    -2.3971  17.0961  17.0961  17.3008  20.2724  20.9501

          k =-0.0769 0.3846-0.0769 (   882 PWs)   bands (ev):

    -1.8137  14.3665  16.4206  17.7004  19.0425  20.5889

          k =-0.1538 0.4615-0.1538 (   875 PWs)   bands (ev):

    -0.9167  11.5230  16.0176  17.3368  17.6774  22.1490

          k =-0.2308 0.5385-0.2308 (   876 PWs)   bands (ev):

     0.2880   8.8576  15.8872  16.0044  17.5930  24.1461

          k =-0.3077 0.6154-0.3077 (   879 PWs)   bands (ev):

     1.7923   6.4284  14.9086  16.0298  17.7854  23.7856

          k = 0.6154-0.3077 0.6154 (   879 PWs)   bands (ev):

     3.5722   4.2754  14.0945  16.4457  18.2569  23.0298

          k = 0.5385-0.2308 0.5385 (   871 PWs)   bands (ev):

     2.3593   5.6703  13.5714  17.1348  19.0109  22.5306

          k = 0.4615-0.1538 0.4615 (   883 PWs)   bands (ev):

     0.7571   8.0013  13.3500  18.0948  20.0378  22.2904

          k = 0.3846-0.0769 0.3846 (   880 PWs)   bands (ev):

    -0.5488  10.5394  13.4667  19.3164  21.3141  22.2807

          k = 0.3077 0.0000 0.3077 (   887 PWs)   bands (ev):

    -1.5493  12.9071  14.2649  20.7635  22.1033  22.7812

          k = 0.0000 0.4615 0.0000 (   881 PWs)   bands (ev):

    -1.3381  15.6473  15.6473  15.6744  17.0273  19.0801

          k =-0.0769 0.5385-0.0769 (   870 PWs)   bands (ev):

    -0.5492  13.0047  15.1490  15.2537  16.3787  19.4488

          k =-0.1538 0.6154-0.1538 (   875 PWs)   bands (ev):

     0.5477  10.3393  13.7661  14.9249  16.4905  21.1724

          k =-0.2308 0.6923-0.2308 (   878 PWs)   bands (ev):

     1.9446   7.8592  12.5563  14.9745  16.6489  23.4158

          k = 0.6923-0.2308 0.6923 (   870 PWs)   bands (ev):

     3.6267   5.6245  11.6374  15.2980  17.0494  25.4437

          k = 0.6154-0.1538 0.6154 (   869 PWs)   bands (ev):

     3.6346   5.6009  11.0252  15.8956  17.7287  24.8710

          k = 0.5385-0.0769 0.5385 (   877 PWs)   bands (ev):

     1.9475   7.7702  10.7666  16.7672  18.6860  24.5412

          k = 0.4615 0.0000 0.4615 (   881 PWs)   bands (ev):

     0.5488   9.7573  11.2507  17.9105  19.9003  24.1530

          k = 0.0000 0.6154 0.0000 (   866 PWs)   bands (ev):

     0.1306  13.3686  14.4270  14.5569  14.5569  18.0420

          k =-0.0769 0.6923-0.0769 (   875 PWs)   bands (ev):

     1.1173  11.7083  12.0819  14.2397  15.3829  18.5702

          k =-0.1538 0.7692-0.1538 (   877 PWs)   bands (ev):

     2.4020   9.5202  10.4781  14.1966  15.6925  20.4834

          k = 0.7692-0.1538 0.7692 (   877 PWs)   bands (ev):

     3.9671   7.2504   9.4464  14.4274  16.0556  22.9347

          k = 0.6923-0.0769 0.6923 (   877 PWs)   bands (ev):

     5.1822   5.7955   8.7776  14.9324  16.6624  25.5849

          k = 0.6154 0.0000 0.6154 (   877 PWs)   bands (ev):

     3.4327   7.3941   8.8676  15.7124  17.5433  27.1398

          k = 0.0000 0.7692 0.0000 (   882 PWs)   bands (ev):

     1.9906  10.0346  13.5879  13.8298  13.8298  17.2981

          k =-0.0769 0.8462-0.0769 (   881 PWs)   bands (ev):

     3.1546   8.6075  11.4498  13.6943  14.7815  18.0191

          k = 0.8462-0.0769 0.8462 (   879 PWs)   bands (ev):

     4.5649   7.5134   9.1890  13.8326  15.2867  20.1289

          k = 0.7692 0.0000 0.7692 (   878 PWs)   bands (ev):

     5.8219   6.8725   7.4014  14.2451  15.8545  22.7693

          k = 0.0000 0.9231 0.0000 (   878 PWs)   bands (ev):

     4.1635   7.1221  13.1666  13.4665  13.4665  16.9124

          k = 0.9231 0.0000 0.9231 (   874 PWs)   bands (ev):

     5.0372   6.3570  11.2512  13.5126  14.5802  17.8317

          k =-0.1538 0.3077 0.0000 (   885 PWs)   bands (ev):

    -2.1847  14.8660  15.9673  19.8388  20.9404  21.7280

          k =-0.2308 0.3846-0.0769 (   881 PWs)   bands (ev):

    -1.3909  12.2974  15.1019  19.3445  19.9803  22.7826

          k =-0.3077 0.4615-0.1538 (   877 PWs)   bands (ev):

    -0.2868   9.5855  14.8253  17.9095  19.8927  22.9893

          k =-0.3846 0.5385-0.2308 (   879 PWs)   bands (ev):

     1.1205   7.0756  14.8607  16.7369  19.9916  21.8903

          k = 0.5385-0.3846 0.6923 (   878 PWs)   bands (ev):

     2.8195   4.8201  15.1718  15.8566  20.3238  21.0318

          k =-0.1538 0.4615 0.0000 (   879 PWs)   bands (ev):

    -1.1273  13.3035  14.5022  17.2298  18.3896  20.4713

          k =-0.2308 0.5385-0.0769 (   872 PWs)   bands (ev):

    -0.1300  10.9239  13.7781  15.6716  18.7656  21.7687

          k =-0.3077 0.6154-0.1538 (   878 PWs)   bands (ev):

     1.1713   8.3935  13.6466  14.4111  18.8940  23.6788

          k = 0.6154-0.3077 0.7692 (   879 PWs)   bands (ev):

     2.7667   6.0712  13.2779  13.9942  19.1973  23.2851

          k = 0.5385-0.2308 0.6923 (   878 PWs)   bands (ev):

     3.9765   4.6752  12.5967  14.4782  19.7507  22.6059

          k = 0.4615-0.1538 0.6154 (   878 PWs)   bands (ev):

     2.2045   6.8023  12.1893  15.2817  20.5591  22.1655

          k = 0.3846-0.0769 0.5385 (   877 PWs)   bands (ev):

     0.7048   9.1575  12.1242  16.3711  21.5461  21.9820

          k = 0.3077 0.0000 0.4615 (   876 PWs)   bands (ev):

    -0.4964  11.3339  12.7716  17.7329  21.4319  22.5661

          k =-0.1538 0.6154 0.0000 (   871 PWs)   bands (ev):

     0.3393  12.1245  13.2386  13.7358  17.2460  19.4823

          k =-0.2308 0.6923-0.0769 (   877 PWs)   bands (ev):

     1.5315   9.9318  12.1050  12.9248  17.8297  20.9530

          k = 0.6923-0.2308 0.8462 (   876 PWs)   bands (ev):

     3.0168   7.5920  11.0325  12.9696  18.1598  23.2192

          k = 0.6154-0.1538 0.7692 (   876 PWs)   bands (ev):

     4.7599   5.4818  10.2282  13.3787  18.6606  24.9534

          k = 0.5385-0.0769 0.6923 (   880 PWs)   bands (ev):

     3.5837   6.7755   9.7716  14.0914  19.4097  24.5253

          k = 0.4615 0.0000 0.6154 (   878 PWs)   bands (ev):

     1.9984   8.5753  10.0648  15.0925  20.4099  23.7963

          k =-0.1538 0.7692 0.0000 (   874 PWs)   bands (ev):

     2.1965  10.2196  11.3361  12.6728  16.4735  18.7776

          k = 0.7692-0.1538 0.9231 (   880 PWs)   bands (ev):

     3.5618   8.9406   9.4221  12.2968  17.2550  20.4372

          k = 0.6923-0.0769 0.8462 (   879 PWs)   bands (ev):

     5.1635   7.1595   8.1963  12.5733  17.7822  22.9091

          k = 0.6154 0.0000 0.7692 (   883 PWs)   bands (ev):

     5.2420   6.6076   8.0561  13.1838  18.4763  25.5647

          k = 0.8462-0.0769 1.0000 (   878 PWs)   bands (ev):

     4.3644   7.3227  10.9413  12.2830  16.0857  18.4132

          k = 0.7692 0.0000 0.9231 (   875 PWs)   bands (ev):

     5.4294   6.7631   9.1692  12.0996  17.0620  20.2615

          k =-0.3077 0.6154 0.0000 (   872 PWs)   bands (ev):

     0.9637  10.1521  11.5987  14.1953  20.3662  22.0324

          k = 0.6154-0.3077 0.9231 (   873 PWs)   bands (ev):

     2.3564   8.1644  11.1237  12.9998  21.0352  22.9176

          k = 0.5385-0.2308 0.8462 (   872 PWs)   bands (ev):

     4.0330   6.0019  11.3293  12.1396  21.4415  22.2437

          k = 0.6923-0.2308 1.0000 (   880 PWs)   bands (ev):

     2.8123   9.3639  10.5216  11.1886  19.6140  21.4382

          k = 0.6154-0.1538 0.9231 (   881 PWs)   bands (ev):

     4.3720   7.5622   9.7427  10.6916  20.5012  23.2842

          k = 0.5385-0.0769 0.8462 (   879 PWs)   bands (ev):

     5.5626   6.1918   9.1445  11.0873  21.1501  24.0523

          k = 0.4615 0.0000 0.7692 (   882 PWs)   bands (ev):

     3.8322   7.7878   9.2426  11.8855  21.9486  23.1071

          k = 0.6923-0.0769 1.0000 (   881 PWs)   bands (ev):

     4.9655   7.9099   8.9698  10.5176  19.2323  21.1147

          k = 0.6154 0.0000 0.9231 (   882 PWs)   bands (ev):

     6.2146   7.2433   7.7205  10.4267  20.3179  23.1808

          k = 0.5385-0.0769 1.0000 (   884 PWs)   bands (ev):

     5.9605   7.3943   8.5442   9.3279  22.7412  23.5599

     the Fermi energy is     7.7746 ev

!    total energy              =     -39.50269552 Ry
     Harris-Foulkes estimate   =     -39.50269557 Ry
     estimated scf accuracy    <       0.00000009 Ry

     total all-electron energy =      -485.645477 Ry

     The total energy is the sum of the following terms:

     one-electron contribution =       3.14966141 Ry
     hartree contribution      =       0.00573282 Ry
     xc contribution           =      -3.02734117 Ry
     ewald contribution        =      -5.39395538 Ry
     one-center paw contrib.   =     -34.23675483 Ry
     smearing contrib. (-TS)   =      -0.00003836 Ry

     convergence has been achieved in   4 iterations

     Writing output data file Al.save

     init_run     :      0.65s CPU      0.68s WALL (       1 calls)
     electrons    :      5.41s CPU      5.64s WALL (       1 calls)

     Called by init_run:
     wfcinit      :      0.31s CPU      0.33s WALL (       1 calls)
     potinit      :      0.07s CPU      0.07s WALL (       1 calls)

     Called by electrons:
     c_bands      :      4.35s CPU      4.56s WALL (       5 calls)
     sum_band     :      0.77s CPU      0.78s WALL (       5 calls)
     v_of_rho     :      0.04s CPU      0.04s WALL (       5 calls)
     newd         :      0.02s CPU      0.02s WALL (       5 calls)
     mix_rho      :      0.02s CPU      0.02s WALL (       5 calls)

     Called by c_bands:
     init_us_2    :      0.17s CPU      0.13s WALL (     924 calls)
     cegterg      :      4.22s CPU      4.42s WALL (     420 calls)

     Called by *egterg:
     h_psi        :      3.77s CPU      3.93s WALL (    1602 calls)
     s_psi        :      0.04s CPU      0.04s WALL (    1602 calls)
     g_psi        :      0.03s CPU      0.03s WALL (    1098 calls)
     cdiaghg      :      0.35s CPU      0.37s WALL (    1434 calls)

     Called by h_psi:
     add_vuspsi   :      0.05s CPU      0.04s WALL (    1602 calls)

     General routines
     calbec       :      0.07s CPU      0.09s WALL (    2022 calls)
     fft          :      0.03s CPU      0.03s WALL (      67 calls)
     fftw         :      4.14s CPU      4.06s WALL (   16928 calls)
     davcio       :      0.02s CPU      0.03s WALL (    1344 calls)

     Parallel routines
     fft_scatter  :      0.63s CPU      0.84s WALL (   16995 calls)

     PAW routines
     PAW_pot      :      0.26s CPU      0.26s WALL (       5 calls)
     PAW_ddot     :      0.02s CPU      0.02s WALL (      12 calls)
     PAW_symme    :      0.00s CPU      0.00s WALL (      10 calls)

     PWSCF        :     6.78s CPU         7.08s WALL


   This run was terminated on:   1:33: 7  12Jul2015            

=------------------------------------------------------------------------------=
   JOB DONE.
=------------------------------------------------------------------------------=
