
     Program PWSCF v.5.0.2 (svn rev. 9656) starts on 12Jul2015 at  1:32:26 

     This program is part of the open-source Quantum ESPRESSO suite
     for quantum simulation of materials; please cite
         "P. Giannozzi et al., J. Phys.:Condens. Matter 21 395502 (2009);
          URL http://www.quantum-espresso.org", 
     in publications or presentations arising from this work. More details at
     http://www.quantum-espresso.org/quote.php

     Parallel version (MPI), running on     4 processors
     R & G space division:  proc/nbgrp/npool/nimage =       4

     Current dimensions of program PWSCF are:
     Max number of different atomic species (ntypx) = 10
     Max number of k-points (npk) =  40000
     Max angular momentum in pseudopotentials (lmaxx) =  3
     Waiting for input...
     Reading input from standard input
               file Al.pbe-n-kjpaw_psl.0.1.UPF: wavefunction(s)  3S renormalized

     Subspace diagonalization in iterative solution of the eigenvalue problem:
     a serial algorithm will be used


     Parallelization info
     --------------------
     sticks:   dense  smooth     PW     G-vecs:    dense   smooth      PW
     Min         118     118     37                 1683     1683     309
     Max         120     120     38                 1684     1684     312
     Sum         475     475    151                 6735     6735    1243



     bravais-lattice index     =            2
     lattice parameter (alat)  =       7.5500  a.u.
     unit-cell volume          =     107.5922 (a.u.)^3
     number of atoms/cell      =            1
     number of atomic types    =            1
     number of electrons       =         3.00
     number of Kohn-Sham states=            6
     kinetic-energy cutoff     =      60.0000  Ry
     charge density cutoff     =     240.0000  Ry
     convergence threshold     =      1.0E-07
     mixing beta               =       0.7000
     number of iterations used =            8  plain     mixing
     Exchange-correlation      =  SLA  PW   PBX  PBC ( 1 4 3 4 0)
     EXX-fraction              =        0.00

     celldm(1)=   7.550000  celldm(2)=   0.000000  celldm(3)=   0.000000
     celldm(4)=   0.000000  celldm(5)=   0.000000  celldm(6)=   0.000000

     crystal axes: (cart. coord. in units of alat)
               a(1) = (  -0.500000   0.000000   0.500000 )  
               a(2) = (   0.000000   0.500000   0.500000 )  
               a(3) = (  -0.500000   0.500000   0.000000 )  

     reciprocal axes: (cart. coord. in units 2 pi/alat)
               b(1) = ( -1.000000 -1.000000  1.000000 )  
               b(2) = (  1.000000  1.000000  1.000000 )  
               b(3) = ( -1.000000  1.000000 -1.000000 )  


     PseudoPot. # 1 for Al read from file:
     ./Al.pbe-n-kjpaw_psl.0.1.UPF
     MD5 check sum: 023d9faf819c76fc4df1f064efe7b7b2
     Pseudo is Projector augmented-wave + core cor, Zval =  3.0
     Generated using "atomic" code by A. Dal Corso  v.5.0.2 svn rev. 9415
     Shape of augmentation charge: PSQ
     Using radial grid of 1135 points,  4 beta functions with: 
                l(1) =   0
                l(2) =   0
                l(3) =   1
                l(4) =   1
     Q(r) pseudized with 0 coefficients 


     atomic species   valence    mass     pseudopotential
        Al             3.00    26.98154     Al( 1.00)

     48 Sym. Ops., with inversion, found



   Cartesian axes

     site n.     atom                  positions (alat units)
         1           Al  tau(   1) = (   0.0000000   0.0000000   0.0000000  )

     number of k points=    84  gaussian smearing, width (Ry)=  0.0030
                       cart. coord. in units 2pi/alat
        k(    1) = (   0.0000000   0.0000000   0.0000000), wk =   0.0009103
        k(    2) = (  -0.0769231   0.0769231  -0.0769231), wk =   0.0072827
        k(    3) = (  -0.1538462   0.1538462  -0.1538462), wk =   0.0072827
        k(    4) = (  -0.2307692   0.2307692  -0.2307692), wk =   0.0072827
        k(    5) = (  -0.3076923   0.3076923  -0.3076923), wk =   0.0072827
        k(    6) = (  -0.3846154   0.3846154  -0.3846154), wk =   0.0072827
        k(    7) = (  -0.4615385   0.4615385  -0.4615385), wk =   0.0072827
        k(    8) = (   0.0000000   0.1538462   0.0000000), wk =   0.0054620
        k(    9) = (  -0.0769231   0.2307692  -0.0769231), wk =   0.0218480
        k(   10) = (  -0.1538462   0.3076923  -0.1538462), wk =   0.0218480
        k(   11) = (  -0.2307692   0.3846154  -0.2307692), wk =   0.0218480
        k(   12) = (  -0.3076923   0.4615385  -0.3076923), wk =   0.0218480
        k(   13) = (  -0.3846154   0.5384615  -0.3846154), wk =   0.0218480
        k(   14) = (   0.5384615  -0.3846154   0.5384615), wk =   0.0218480
        k(   15) = (   0.4615385  -0.3076923   0.4615385), wk =   0.0218480
        k(   16) = (   0.3846154  -0.2307692   0.3846154), wk =   0.0218480
        k(   17) = (   0.3076923  -0.1538462   0.3076923), wk =   0.0218480
        k(   18) = (   0.2307692  -0.0769231   0.2307692), wk =   0.0218480
        k(   19) = (   0.1538462   0.0000000   0.1538462), wk =   0.0109240
        k(   20) = (   0.0000000   0.3076923   0.0000000), wk =   0.0054620
        k(   21) = (  -0.0769231   0.3846154  -0.0769231), wk =   0.0218480
        k(   22) = (  -0.1538462   0.4615385  -0.1538462), wk =   0.0218480
        k(   23) = (  -0.2307692   0.5384615  -0.2307692), wk =   0.0218480
        k(   24) = (  -0.3076923   0.6153846  -0.3076923), wk =   0.0218480
        k(   25) = (   0.6153846  -0.3076923   0.6153846), wk =   0.0218480
        k(   26) = (   0.5384615  -0.2307692   0.5384615), wk =   0.0218480
        k(   27) = (   0.4615385  -0.1538462   0.4615385), wk =   0.0218480
        k(   28) = (   0.3846154  -0.0769231   0.3846154), wk =   0.0218480
        k(   29) = (   0.3076923   0.0000000   0.3076923), wk =   0.0109240
        k(   30) = (   0.0000000   0.4615385   0.0000000), wk =   0.0054620
        k(   31) = (  -0.0769231   0.5384615  -0.0769231), wk =   0.0218480
        k(   32) = (  -0.1538462   0.6153846  -0.1538462), wk =   0.0218480
        k(   33) = (  -0.2307692   0.6923077  -0.2307692), wk =   0.0218480
        k(   34) = (   0.6923077  -0.2307692   0.6923077), wk =   0.0218480
        k(   35) = (   0.6153846  -0.1538462   0.6153846), wk =   0.0218480
        k(   36) = (   0.5384615  -0.0769231   0.5384615), wk =   0.0218480
        k(   37) = (   0.4615385   0.0000000   0.4615385), wk =   0.0109240
        k(   38) = (   0.0000000   0.6153846   0.0000000), wk =   0.0054620
        k(   39) = (  -0.0769231   0.6923077  -0.0769231), wk =   0.0218480
        k(   40) = (  -0.1538462   0.7692308  -0.1538462), wk =   0.0218480
        k(   41) = (   0.7692308  -0.1538462   0.7692308), wk =   0.0218480
        k(   42) = (   0.6923077  -0.0769231   0.6923077), wk =   0.0218480
        k(   43) = (   0.6153846   0.0000000   0.6153846), wk =   0.0109240
        k(   44) = (   0.0000000   0.7692308   0.0000000), wk =   0.0054620
        k(   45) = (  -0.0769231   0.8461538  -0.0769231), wk =   0.0218480
        k(   46) = (   0.8461538  -0.0769231   0.8461538), wk =   0.0218480
        k(   47) = (   0.7692308   0.0000000   0.7692308), wk =   0.0109240
        k(   48) = (   0.0000000   0.9230769   0.0000000), wk =   0.0054620
        k(   49) = (   0.9230769   0.0000000   0.9230769), wk =   0.0109240
        k(   50) = (  -0.1538462   0.3076923   0.0000000), wk =   0.0218480
        k(   51) = (  -0.2307692   0.3846154  -0.0769231), wk =   0.0436959
        k(   52) = (  -0.3076923   0.4615385  -0.1538462), wk =   0.0436959
        k(   53) = (  -0.3846154   0.5384615  -0.2307692), wk =   0.0436959
        k(   54) = (   0.5384615  -0.3846154   0.6923077), wk =   0.0436959
        k(   55) = (  -0.1538462   0.4615385   0.0000000), wk =   0.0218480
        k(   56) = (  -0.2307692   0.5384615  -0.0769231), wk =   0.0436959
        k(   57) = (  -0.3076923   0.6153846  -0.1538462), wk =   0.0436959
        k(   58) = (   0.6153846  -0.3076923   0.7692308), wk =   0.0436959
        k(   59) = (   0.5384615  -0.2307692   0.6923077), wk =   0.0436959
        k(   60) = (   0.4615385  -0.1538462   0.6153846), wk =   0.0436959
        k(   61) = (   0.3846154  -0.0769231   0.5384615), wk =   0.0436959
        k(   62) = (   0.3076923   0.0000000   0.4615385), wk =   0.0218480
        k(   63) = (  -0.1538462   0.6153846   0.0000000), wk =   0.0218480
        k(   64) = (  -0.2307692   0.6923077  -0.0769231), wk =   0.0436959
        k(   65) = (   0.6923077  -0.2307692   0.8461538), wk =   0.0436959
        k(   66) = (   0.6153846  -0.1538462   0.7692308), wk =   0.0436959
        k(   67) = (   0.5384615  -0.0769231   0.6923077), wk =   0.0436959
        k(   68) = (   0.4615385   0.0000000   0.6153846), wk =   0.0218480
        k(   69) = (  -0.1538462   0.7692308   0.0000000), wk =   0.0218480
        k(   70) = (   0.7692308  -0.1538462   0.9230769), wk =   0.0436959
        k(   71) = (   0.6923077  -0.0769231   0.8461538), wk =   0.0436959
        k(   72) = (   0.6153846   0.0000000   0.7692308), wk =   0.0218480
        k(   73) = (   0.8461538  -0.0769231   1.0000000), wk =   0.0218480
        k(   74) = (   0.7692308   0.0000000   0.9230769), wk =   0.0218480
        k(   75) = (  -0.3076923   0.6153846   0.0000000), wk =   0.0218480
        k(   76) = (   0.6153846  -0.3076923   0.9230769), wk =   0.0436959
        k(   77) = (   0.5384615  -0.2307692   0.8461538), wk =   0.0436959
        k(   78) = (   0.6923077  -0.2307692   1.0000000), wk =   0.0218480
        k(   79) = (   0.6153846  -0.1538462   0.9230769), wk =   0.0436959
        k(   80) = (   0.5384615  -0.0769231   0.8461538), wk =   0.0436959
        k(   81) = (   0.4615385   0.0000000   0.7692308), wk =   0.0218480
        k(   82) = (   0.6923077  -0.0769231   1.0000000), wk =   0.0218480
        k(   83) = (   0.6153846   0.0000000   0.9230769), wk =   0.0218480
        k(   84) = (   0.5384615  -0.0769231   1.0000000), wk =   0.0218480

     Dense  grid:     6735 G-vectors     FFT dimensions: (  27,  27,  27)

     Largest allocated arrays     est. size (Mb)     dimensions
        Kohn-Sham Wavefunctions         0.02 Mb     (    223,    6)
        NL pseudopotentials             0.03 Mb     (    223,    8)
        Each V/rho on FFT grid          0.08 Mb     (   5103)
        Each G-vector array             0.01 Mb     (   1684)
        G-vector shells                 0.00 Mb     (    116)
     Largest temporary arrays     est. size (Mb)     dimensions
        Auxiliary wavefunctions         0.08 Mb     (    223,   24)
        Each subspace H/S matrix        0.01 Mb     (  24,  24)
        Each <psi_i|beta_j> matrix      0.00 Mb     (      8,    6)
        Arrays for rho mixing           0.62 Mb     (   5103,   8)

     Initial potential from superposition of free atoms

     starting charge    2.99771, renormalised to    3.00000
     Starting wfc are    4 randomized atomic wfcs
     Checking if some PAW data can be deallocated... 

     total cpu time spent up to now is        1.1 secs

     per-process dynamical memory:     9.0 Mb

     Self-consistent Calculation

     iteration #  1     ecut=    60.00 Ry     beta=0.70
     Davidson diagonalization with overlap
     ethr =  1.00E-02,  avg # of iterations =  4.9

     Threshold (ethr) on eigenvalues was too large:
     Diagonalizing with lowered threshold

     Davidson diagonalization with overlap
     ethr =  1.97E-04,  avg # of iterations =  2.0

     total cpu time spent up to now is        3.6 secs

     total energy              =     -39.50243926 Ry
     Harris-Foulkes estimate   =     -39.50381127 Ry
     estimated scf accuracy    <       0.00563077 Ry

     iteration #  2     ecut=    60.00 Ry     beta=0.70
     Davidson diagonalization with overlap
     ethr =  1.88E-04,  avg # of iterations =  1.1

     total cpu time spent up to now is        4.5 secs

     total energy              =     -39.50239465 Ry
     Harris-Foulkes estimate   =     -39.50250142 Ry
     estimated scf accuracy    <       0.00041604 Ry

     iteration #  3     ecut=    60.00 Ry     beta=0.70
     Davidson diagonalization with overlap
     ethr =  1.39E-05,  avg # of iterations =  1.8

     total cpu time spent up to now is        5.5 secs

     total energy              =     -39.50241332 Ry
     Harris-Foulkes estimate   =     -39.50241381 Ry
     estimated scf accuracy    <       0.00000120 Ry

     iteration #  4     ecut=    60.00 Ry     beta=0.70
     Davidson diagonalization with overlap
     ethr =  4.00E-08,  avg # of iterations =  3.1

     total cpu time spent up to now is        6.6 secs

     End of self-consistent calculation

          k = 0.0000 0.0000 0.0000 (   869 PWs)   bands (ev):

    -3.1133  21.0807  21.0807  22.7996  22.7996  22.7996

          k =-0.0769 0.0769-0.0769 (   872 PWs)   bands (ev):

    -2.9488  18.7235  20.6063  20.6063  23.3926  23.5299

          k =-0.1538 0.1538-0.1538 (   857 PWs)   bands (ev):

    -2.4563  15.5606  19.9511  19.9511  23.2286  24.6913

          k =-0.2308 0.2308-0.2308 (   854 PWs)   bands (ev):

    -1.6395  12.5073  19.4931  19.4932  22.9795  23.7032

          k =-0.3077 0.3077-0.3077 (   848 PWs)   bands (ev):

    -0.5038   9.6657  19.2884  19.2884  22.3311  22.3311

          k =-0.3846 0.3846-0.3846 (   847 PWs)   bands (ev):

     0.9429   7.0730  19.3503  19.3503  21.1839  21.1840

          k =-0.4615 0.4615-0.4615 (   847 PWs)   bands (ev):

     2.6866   4.7544  19.6805  19.6805  20.3057  20.3057

          k = 0.0000 0.1538 0.0000 (   877 PWs)   bands (ev):

    -2.8940  19.5594  19.5594  19.7768  22.2970  24.6428

          k =-0.0769 0.2308-0.0769 (   860 PWs)   bands (ev):

    -2.5110  16.6807  18.7218  19.9240  22.6178  23.7867

          k =-0.1538 0.3077-0.1538 (   854 PWs)   bands (ev):

    -1.8024  13.6132  18.1427  19.6141  21.9134  24.1545

          k =-0.2308 0.3846-0.2308 (   852 PWs)   bands (ev):

    -0.7734  10.7111  17.8335  19.3634  20.4012  24.4774

          k =-0.3077 0.4615-0.3077 (   842 PWs)   bands (ev):

     0.5692   8.0403  17.7983  19.0178  19.4681  23.2783

          k =-0.3846 0.5385-0.3846 (   844 PWs)   bands (ev):

     2.2147   5.6313  18.0395  18.0728  19.6810  22.3177

          k = 0.5385-0.3846 0.5385 (   843 PWs)   bands (ev):

     3.4521   4.2024  17.3594  18.5588  20.2257  21.6198

          k = 0.4615-0.3077 0.4615 (   846 PWs)   bands (ev):

     1.6337   6.4026  16.9272  19.3567  21.0535  21.1907

          k = 0.3846-0.2308 0.3846 (   851 PWs)   bands (ev):

     0.0874   8.9001  16.7812  20.4282  21.0310  22.1479

          k = 0.3077-0.1538 0.3077 (   848 PWs)   bands (ev):

    -1.1516  11.6467  16.9246  21.1120  21.7756  23.4623

          k = 0.2308-0.0769 0.2308 (   853 PWs)   bands (ev):

    -2.0745  14.5891  17.3707  21.4090  23.2282  24.0409

          k = 0.1538 0.0000 0.1538 (   863 PWs)   bands (ev):

    -2.6750  17.3887  18.3546  21.5074  23.0674  23.9467

          k = 0.0000 0.3077 0.0000 (   869 PWs)   bands (ev):

    -2.2380  17.7602  17.7602  17.8383  21.1624  21.6550

          k =-0.0769 0.3846-0.0769 (   854 PWs)   bands (ev):

    -1.6395  14.9190  17.0738  18.3116  19.7496  21.4263

          k =-0.1538 0.4615-0.1538 (   849 PWs)   bands (ev):

    -0.7195  12.0162  16.6644  17.9049  18.4194  22.9879

          k =-0.2308 0.5385-0.2308 (   845 PWs)   bands (ev):

     0.5153   9.2922  16.5326  16.6059  18.2826  25.0257

          k =-0.3077 0.6154-0.3077 (   837 PWs)   bands (ev):

     2.0557   6.8087  15.4979  16.6789  18.4733  24.6028

          k = 0.6154-0.3077 0.6154 (   841 PWs)   bands (ev):

     3.8628   4.6212  14.6716  17.1044  18.9537  23.8278

          k = 0.5385-0.2308 0.5385 (   843 PWs)   bands (ev):

     2.6355   6.0337  14.1412  17.8096  19.7241  23.3123

          k = 0.4615-0.1538 0.4615 (   846 PWs)   bands (ev):

     0.9959   8.4150  13.9199  18.7938  20.7736  23.0555

          k = 0.3846-0.0769 0.3846 (   845 PWs)   bands (ev):

    -0.3423  11.0040  14.0491  20.0507  22.0775  23.0181

          k = 0.3077 0.0000 0.3077 (   845 PWs)   bands (ev):

    -1.3682  13.4071  14.8862  21.5548  22.7826  23.5765

          k = 0.0000 0.4615 0.0000 (   849 PWs)   bands (ev):

    -1.1517  16.1666  16.2865  16.2865  17.6467  19.9378

          k =-0.0769 0.5385-0.0769 (   844 PWs)   bands (ev):

    -0.3427  13.5203  15.7794  15.8306  16.9915  20.2747

          k =-0.1538 0.6154-0.1538 (   848 PWs)   bands (ev):

     0.7814  10.8014  14.3229  15.5517  17.1281  21.9944

          k =-0.2308 0.6923-0.2308 (   838 PWs)   bands (ev):

     2.2117   8.2687  13.0925  15.6029  17.2980  24.2729

          k = 0.6923-0.2308 0.6923 (   843 PWs)   bands (ev):

     3.9294   5.9883  12.1574  15.9335  17.7109  26.2960

          k = 0.6154-0.1538 0.6154 (   844 PWs)   bands (ev):

     3.9377   5.9626  11.5364  16.5442  18.4082  25.7056

          k = 0.5385-0.0769 0.5385 (   845 PWs)   bands (ev):

     2.2148   8.1700  11.2826  17.4355  19.3894  25.3532

          k = 0.4615 0.0000 0.4615 (   849 PWs)   bands (ev):

     0.7826  10.1825  11.8005  18.6062  20.6326  24.8890

          k = 0.0000 0.6154 0.0000 (   837 PWs)   bands (ev):

     0.3540  13.9082  14.8851  15.1763  15.1763  18.8691

          k =-0.0769 0.6923-0.0769 (   843 PWs)   bands (ev):

     1.3648  12.1855  12.6045  14.8535  15.9609  19.3749

          k =-0.1538 0.7692-0.1538 (   843 PWs)   bands (ev):

     2.6798   9.9469  10.9818  14.8100  16.3019  21.2907

          k = 0.7692-0.1538 0.7692 (   838 PWs)   bands (ev):

     4.2785   7.6395   9.9238  15.0458  16.6842  23.7798

          k = 0.6923-0.0769 0.6923 (   841 PWs)   bands (ev):

     5.5071   6.1638   9.2465  15.5614  17.3110  26.4824

          k = 0.6154 0.0000 0.6154 (   848 PWs)   bands (ev):

     3.7337   7.7651   9.3590  16.3577  18.2169  28.0923

          k = 0.0000 0.7692 0.0000 (   838 PWs)   bands (ev):

     2.2588  10.5015  14.0230  14.4361  14.4361  18.1020

          k =-0.0769 0.8462-0.0769 (   832 PWs)   bands (ev):

     3.4490   9.0419  11.9329  14.2983  15.3441  18.8087

          k = 0.8462-0.0769 0.8462 (   835 PWs)   bands (ev):

     4.8864   7.9193   9.6465  14.4395  15.8830  20.9281

          k = 0.7692 0.0000 0.7692 (   834 PWs)   bands (ev):

     6.1577   7.2027   7.9017  14.8602  16.4763  23.6104

          k = 0.0000 0.9231 0.0000 (   834 PWs)   bands (ev):

     4.4766   7.5302  13.5903  14.0663  14.0663  17.7038

          k = 0.9231 0.0000 0.9231 (   828 PWs)   bands (ev):

     5.3557   6.7615  11.7280  14.1134  15.1379  18.6160

          k =-0.1538 0.3077 0.0000 (   861 PWs)   bands (ev):

    -2.0201  15.4137  16.6219  20.4946  21.7694  22.5176

          k =-0.2308 0.3846-0.0769 (   847 PWs)   bands (ev):

    -1.2057  12.8038  15.7211  20.0663  20.6775  23.6388

          k =-0.3077 0.4615-0.1538 (   852 PWs)   bands (ev):

    -0.0737  10.0359  15.4305  18.5943  20.6140  23.7975

          k =-0.3846 0.5385-0.2308 (   841 PWs)   bands (ev):

     1.3681   7.4704  15.4597  17.3994  20.7270  22.6642

          k = 0.5385-0.3846 0.6923 (   843 PWs)   bands (ev):

     3.1044   5.1666  15.7563  16.5201  21.0814  21.7738

          k =-0.1538 0.4615 0.0000 (   846 PWs)   bands (ev):

    -0.9354  13.8120  15.1202  17.8901  19.0213  21.3205

          k =-0.2308 0.5385-0.0769 (   850 PWs)   bands (ev):

     0.0869  11.3959  14.3564  16.3076  19.4388  22.6123

          k =-0.3077 0.6154-0.1538 (   843 PWs)   bands (ev):

     1.4202   8.8148  14.1896  15.0471  19.5922  24.5475

          k = 0.6154-0.3077 0.7692 (   841 PWs)   bands (ev):

     3.0522   6.4430  13.8006  14.6323  19.9116  24.0962

          k = 0.5385-0.2308 0.6923 (   837 PWs)   bands (ev):

     4.2755   5.0299  13.1321  15.1003  20.4834  23.3933

          k = 0.4615-0.1538 0.6154 (   839 PWs)   bands (ev):

     2.4776   7.1883  12.7259  15.9149  21.3168  22.9313

          k = 0.3846-0.0769 0.5385 (   844 PWs)   bands (ev):

     0.9423   9.5890  12.6715  17.0262  22.3410  22.7153

          k = 0.3077 0.0000 0.4615 (   845 PWs)   bands (ev):

    -0.2886  11.7959  13.3563  18.4184  22.1322  23.4368

          k =-0.1538 0.6154 0.0000 (   842 PWs)   bands (ev):

     0.5679  12.6033  13.7494  14.3921  17.8549  20.3120

          k =-0.2308 0.6923-0.0769 (   841 PWs)   bands (ev):

     1.7890  10.3762  12.5944  13.5515  18.4804  21.7801

          k = 0.6923-0.2308 0.8462 (   843 PWs)   bands (ev):

     3.3084   7.9920  11.5270  13.5645  18.8390  24.0755

          k = 0.6154-0.1538 0.7692 (   844 PWs)   bands (ev):

     5.0758   5.8512  10.7152  13.9730  19.3605  25.8137

          k = 0.5385-0.0769 0.6923 (   844 PWs)   bands (ev):

     3.8876   7.1532  10.2601  14.6979  20.1324  25.3453

          k = 0.4615 0.0000 0.6154 (   842 PWs)   bands (ev):

     2.2670   8.9731  10.5826  15.7200  21.1606  24.5614

          k =-0.1538 0.7692 0.0000 (   838 PWs)   bands (ev):

     2.4695  10.6825  11.7949  13.2857  17.0667  19.5894

          k = 0.7692-0.1538 0.9231 (   842 PWs)   bands (ev):

     3.8651   9.3469   9.8981  12.8786  17.8919  21.2526

          k = 0.6923-0.0769 0.8462 (   839 PWs)   bands (ev):

     5.4960   7.5297   8.6637  13.1501  18.4516  23.7569

          k = 0.6154 0.0000 0.7692 (   840 PWs)   bands (ev):

     5.5782   6.9608   8.5293  13.7708  19.1713  26.4659

          k = 0.8462-0.0769 1.0000 (   831 PWs)   bands (ev):

     4.6818   7.7331  11.3901  12.8810  16.6710  19.2151

          k = 0.7692 0.0000 0.9231 (   840 PWs)   bands (ev):

     5.7565   7.1691   9.6127  12.6737  17.6942  21.0727

          k =-0.3077 0.6154 0.0000 (   844 PWs)   bands (ev):

     1.2076  10.5860  12.1426  14.8067  21.0500  22.9090

          k = 0.6154-0.3077 0.9231 (   844 PWs)   bands (ev):

     2.6332   8.5719  11.6290  13.5938  21.7719  23.7442

          k = 0.5385-0.2308 0.8462 (   843 PWs)   bands (ev):

     4.3446   6.3716  11.7994  12.7470  22.2211  23.0111

          k = 0.6923-0.2308 1.0000 (   845 PWs)   bands (ev):

     3.0995   9.7791  10.9419  11.8291  20.2824  22.2977

          k = 0.6154-0.1538 0.9231 (   847 PWs)   bands (ev):

     4.6923   7.9521  10.1702  11.2850  21.2226  24.1571

          k = 0.5385-0.0769 0.8462 (   847 PWs)   bands (ev):

     5.8962   6.5659   9.5988  11.6487  21.9088  24.8667

          k = 0.4615 0.0000 0.7692 (   840 PWs)   bands (ev):

     4.1418   8.1675   9.7256  12.4542  22.7416  23.8624

          k = 0.6923-0.0769 1.0000 (   849 PWs)   bands (ev):

     5.2954   8.3197   9.3756  11.1007  19.8925  21.9654

          k = 0.6154 0.0000 0.9231 (   841 PWs)   bands (ev):

     6.5591   7.5873   8.1916  10.9806  21.0344  24.0490

          k = 0.5385-0.0769 1.0000 (   855 PWs)   bands (ev):

     6.3090   7.7649   8.9106   9.9478  23.4891  24.4316

     the Fermi energy is     8.1855 ev

!    total energy              =     -39.50241454 Ry
     Harris-Foulkes estimate   =     -39.50241457 Ry
     estimated scf accuracy    <       0.00000008 Ry

     total all-electron energy =      -485.645196 Ry

     The total energy is the sum of the following terms:

     one-electron contribution =       3.24563784 Ry
     hartree contribution      =       0.00609368 Ry
     xc contribution           =      -3.04871117 Ry
     ewald contribution        =      -5.46539850 Ry
     one-center paw contrib.   =     -34.23998677 Ry
     smearing contrib. (-TS)   =      -0.00004962 Ry

     convergence has been achieved in   4 iterations

     Writing output data file Al.save

     init_run     :      0.63s CPU      0.68s WALL (       1 calls)
     electrons    :      5.27s CPU      5.52s WALL (       1 calls)

     Called by init_run:
     wfcinit      :      0.31s CPU      0.33s WALL (       1 calls)
     potinit      :      0.07s CPU      0.07s WALL (       1 calls)

     Called by electrons:
     c_bands      :      4.26s CPU      4.45s WALL (       5 calls)
     sum_band     :      0.73s CPU      0.78s WALL (       5 calls)
     v_of_rho     :      0.04s CPU      0.04s WALL (       5 calls)
     newd         :      0.02s CPU      0.02s WALL (       5 calls)
     mix_rho      :      0.02s CPU      0.02s WALL (       5 calls)

     Called by c_bands:
     init_us_2    :      0.16s CPU      0.13s WALL (     924 calls)
     cegterg      :      4.12s CPU      4.31s WALL (     420 calls)

     Called by *egterg:
     h_psi        :      3.71s CPU      3.88s WALL (    1588 calls)
     s_psi        :      0.03s CPU      0.04s WALL (    1588 calls)
     g_psi        :      0.03s CPU      0.03s WALL (    1084 calls)
     cdiaghg      :      0.35s CPU      0.33s WALL (    1420 calls)

     Called by h_psi:
     add_vuspsi   :      0.05s CPU      0.04s WALL (    1588 calls)

     General routines
     calbec       :      0.08s CPU      0.09s WALL (    2008 calls)
     fft          :      0.03s CPU      0.03s WALL (      67 calls)
     fftw         :      4.05s CPU      4.04s WALL (   16920 calls)
     davcio       :      0.02s CPU      0.03s WALL (    1344 calls)

     Parallel routines
     fft_scatter  :      0.64s CPU      0.87s WALL (   16987 calls)

     PAW routines
     PAW_pot      :      0.26s CPU      0.26s WALL (       5 calls)
     PAW_ddot     :      0.02s CPU      0.02s WALL (      12 calls)
     PAW_symme    :      0.00s CPU      0.00s WALL (      10 calls)

     PWSCF        :     6.65s CPU         6.98s WALL


   This run was terminated on:   1:32:33  12Jul2015            

=------------------------------------------------------------------------------=
   JOB DONE.
=------------------------------------------------------------------------------=
