
     Program PWSCF v.5.0.2 (svn rev. 9656) starts on 26Jul2015 at  2: 8:12 

     This program is part of the open-source Quantum ESPRESSO suite
     for quantum simulation of materials; please cite
         "P. Giannozzi et al., J. Phys.:Condens. Matter 21 395502 (2009);
          URL http://www.quantum-espresso.org", 
     in publications or presentations arising from this work. More details at
     http://www.quantum-espresso.org/quote.php

     Parallel version (MPI), running on     4 processors
     R & G space division:  proc/nbgrp/npool/nimage =       4

     Current dimensions of program PWSCF are:
     Max number of different atomic species (ntypx) = 10
     Max number of k-points (npk) =  40000
     Max angular momentum in pseudopotentials (lmaxx) =  3
     Waiting for input...
     Reading input from standard input
               file C.pbe-rrkjus.UPF: wavefunction(s)  2S 2P renormalized

     Subspace diagonalization in iterative solution of the eigenvalue problem:
     a serial algorithm will be used


     Parallelization info
     --------------------
     sticks:   dense  smooth     PW     G-vecs:    dense   smooth      PW
     Min         211      78     27                58589    14250    2561
     Max         212      79     28                58614    14321    2582
     Sum         847     313    109               234415    57119   10277



     bravais-lattice index     =            0
     lattice parameter (alat)  =       4.6500  a.u.
     unit-cell volume          =    1044.8904 (a.u.)^3
     number of atoms/cell      =            2
     number of atomic types    =            1
     number of electrons       =         8.00
     number of Kohn-Sham states=            8
     kinetic-energy cutoff     =      55.0000  Ry
     charge density cutoff     =     560.0000  Ry
     convergence threshold     =      1.0E-08
     mixing beta               =       0.7000
     number of iterations used =            8  plain     mixing
     Exchange-correlation      =  SLA  PW   PBE  PBE ( 1 4 3 4 0)
     EXX-fraction              =        0.00

     celldm(1)=   4.650000  celldm(2)=   0.000000  celldm(3)=   0.000000
     celldm(4)=   0.000000  celldm(5)=   0.000000  celldm(6)=   0.000000

     crystal axes: (cart. coord. in units of alat)
               a(1) = (   1.000000   0.000000   0.000000 )  
               a(2) = (   0.500000   0.866025   0.000000 )  
               a(3) = (   0.000000   0.000000  12.000000 )  

     reciprocal axes: (cart. coord. in units 2 pi/alat)
               b(1) = (  1.000000 -0.577350  0.000000 )  
               b(2) = (  0.000000  1.154701  0.000000 )  
               b(3) = (  0.000000  0.000000  0.083333 )  


     PseudoPot. # 1 for C  read from file:
     ./C.pbe-rrkjus.UPF
     MD5 check sum: 00fb224312de0c5b6853bd333518df6f
     Pseudo is Ultrasoft, Zval =  4.0
     Generated by new atomic code, or converted to UPF format
     Using radial grid of  627 points,  4 beta functions with: 
                l(1) =   0
                l(2) =   0
                l(3) =   1
                l(4) =   1
     Q(r) pseudized with 0 coefficients 


     atomic species   valence    mass     pseudopotential
        C              4.00    12.00000     C ( 1.00)

     24 Sym. Ops., with inversion, found (12 have fractional translation)



   Cartesian axes

     site n.     atom                  positions (alat units)
         1           C   tau(   1) = (   0.0000000   0.0000000   0.0000000  )
         2           C   tau(   2) = (   1.0000000   0.5773503   0.0000000  )

     number of k points=    12  gaussian smearing, width (Ry)=  0.0010
                       cart. coord. in units 2pi/alat
        k(    1) = (   0.0000000   0.0000000   0.0000000), wk =   0.0246914
        k(    2) = (   0.0000000   0.1283001   0.0000000), wk =   0.1481481
        k(    3) = (   0.0000000   0.2566001   0.0000000), wk =   0.1481481
        k(    4) = (   0.0000000   0.3849002   0.0000000), wk =   0.1481481
        k(    5) = (   0.0000000   0.5132002   0.0000000), wk =   0.1481481
        k(    6) = (   0.1111111   0.1924501   0.0000000), wk =   0.1481481
        k(    7) = (   0.1111111   0.3207502   0.0000000), wk =   0.2962963
        k(    8) = (   0.1111111   0.4490502   0.0000000), wk =   0.2962963
        k(    9) = (   0.1111111  -0.5773503   0.0000000), wk =   0.1481481
        k(   10) = (   0.2222222   0.3849002   0.0000000), wk =   0.1481481
        k(   11) = (   0.2222222  -0.6415003   0.0000000), wk =   0.2962963
        k(   12) = (   0.3333333  -0.5773503   0.0000000), wk =   0.0493827

     Dense  grid:   234415 G-vectors     FFT dimensions: (  36,  36, 432)

     Smooth grid:    57119 G-vectors     FFT dimensions: (  24,  24, 270)

     Largest allocated arrays     est. size (Mb)     dimensions
        Kohn-Sham Wavefunctions         0.23 Mb     (   1898,    8)
        NL pseudopotentials             0.46 Mb     (   1898,   16)
        Each V/rho on FFT grid          2.14 Mb     ( 139968)
        Each G-vector array             0.45 Mb     (  58604)
        G-vector shells                 0.13 Mb     (  17392)
     Largest temporary arrays     est. size (Mb)     dimensions
        Auxiliary wavefunctions         0.93 Mb     (   1898,   32)
        Each subspace H/S matrix        0.02 Mb     (  32,  32)
        Each <psi_i|beta_j> matrix      0.00 Mb     (     16,    8)
        Arrays for rho mixing          17.09 Mb     ( 139968,   8)

     Initial potential from superposition of free atoms

     starting charge    7.99989, renormalised to    8.00000

     negative rho (up, down):  0.254E-04 0.000E+00
     Starting wfc are    8 randomized atomic wfcs

     total cpu time spent up to now is        2.8 secs

     per-process dynamical memory:    36.5 Mb

     Self-consistent Calculation

     iteration #  1     ecut=    55.00 Ry     beta=0.70
     Davidson diagonalization with overlap
     ethr =  1.00E-02,  avg # of iterations =  4.9

     negative rho (up, down):  0.178E-04 0.000E+00

     total cpu time spent up to now is        6.4 secs

     total energy              =     -22.75836353 Ry
     Harris-Foulkes estimate   =     -22.88282312 Ry
     estimated scf accuracy    <       0.20657711 Ry

     iteration #  2     ecut=    55.00 Ry     beta=0.70
     Davidson diagonalization with overlap
     ethr =  2.58E-03,  avg # of iterations =  4.4

     negative rho (up, down):  0.170E-04 0.000E+00

     total cpu time spent up to now is        9.4 secs

     total energy              =     -22.78946586 Ry
     Harris-Foulkes estimate   =     -22.78960170 Ry
     estimated scf accuracy    <       0.00250425 Ry

     iteration #  3     ecut=    55.00 Ry     beta=0.70
     Davidson diagonalization with overlap
     ethr =  3.13E-05,  avg # of iterations =  9.5

     negative rho (up, down):  0.187E-04 0.000E+00

     total cpu time spent up to now is       13.8 secs

     total energy              =     -22.78982464 Ry
     Harris-Foulkes estimate   =     -22.78979445 Ry
     estimated scf accuracy    <       0.00013698 Ry

     iteration #  4     ecut=    55.00 Ry     beta=0.70
     Davidson diagonalization with overlap
     ethr =  1.71E-06,  avg # of iterations =  4.6

     negative rho (up, down):  0.187E-04 0.000E+00

     total cpu time spent up to now is       16.9 secs

     total energy              =     -22.78982993 Ry
     Harris-Foulkes estimate   =     -22.78982910 Ry
     estimated scf accuracy    <       0.00000094 Ry

     iteration #  5     ecut=    55.00 Ry     beta=0.70
     Davidson diagonalization with overlap
     ethr =  1.17E-08,  avg # of iterations =  2.4

     negative rho (up, down):  0.187E-04 0.000E+00

     total cpu time spent up to now is       20.0 secs

     total energy              =     -22.78983022 Ry
     Harris-Foulkes estimate   =     -22.78983022 Ry
     estimated scf accuracy    <       0.00000003 Ry

     iteration #  6     ecut=    55.00 Ry     beta=0.70
     Davidson diagonalization with overlap
     ethr =  3.18E-10,  avg # of iterations =  2.0

     negative rho (up, down):  0.186E-04 0.000E+00

     total cpu time spent up to now is       22.5 secs

     End of self-consistent calculation

          k = 0.0000 0.0000 0.0000 (  7331 PWs)   bands (ev):

   -22.4913 -10.6016  -6.0242  -6.0242   0.3035   1.0416   1.2090   1.5613

          k = 0.0000 0.1283 0.0000 (  7311 PWs)   bands (ev):

   -22.1994 -10.2524  -7.1342  -6.5974   0.7010   1.4457   1.6177   1.9678

          k = 0.0000 0.2566 0.0000 (  7237 PWs)   bands (ev):

   -21.3297  -9.6756  -9.2230  -7.7535   1.8924   2.6524   2.8435   3.1847

          k = 0.0000 0.3849 0.0000 (  7196 PWs)   bands (ev):

   -19.9030 -12.6019  -8.7746  -7.5938   1.9773   3.8614   4.6830   4.8234

          k = 0.0000 0.5132 0.0000 (  7124 PWs)   bands (ev):

   -17.9946 -15.3471  -9.3386  -5.7454  -0.7263   4.5366   6.6300   7.4633

          k = 0.1111 0.1925 0.0000 (  7243 PWs)   bands (ev):

   -21.6186  -9.5624  -8.6840  -7.7424   1.4964   2.2522   2.4349   2.7801

          k = 0.1111 0.3208 0.0000 (  7208 PWs)   bands (ev):

   -20.4703 -11.1285  -9.1253  -8.2234   3.0826   3.2315   3.8723   4.0693

          k = 0.1111 0.4491 0.0000 (  7161 PWs)   bands (ev):

   -18.7922 -13.8868 -10.0050  -6.3913   0.3827   5.4224   5.9057   6.2465

          k = 0.1111-0.5774 0.0000 (  7142 PWs)   bands (ev):

   -17.0422 -16.0364 -10.3046  -5.0516  -1.3455   5.7307   8.4413   8.6130

          k = 0.2222 0.3849 0.0000 (  7215 PWs)   bands (ev):

   -19.0680 -12.6385 -11.1394  -6.6377   1.0117   5.0526   5.8111   6.1122

          k = 0.2222-0.6415 0.0000 (  7188 PWs)   bands (ev):

   -17.2152 -14.7543 -12.1360  -4.7569  -1.2322   7.7315   7.9484   8.5922

          k = 0.3333-0.5774 0.0000 (  7188 PWs)   bands (ev):

   -15.5522 -15.5522 -13.5624  -2.9487  -2.9487   7.6897   9.9572   9.9572

     the Fermi energy is    -2.9487 ev

!    total energy              =     -22.78983023 Ry
     Harris-Foulkes estimate   =     -22.78983023 Ry
     estimated scf accuracy    <          6.4E-10 Ry

     The total energy is the sum of the following terms:

     one-electron contribution =    -353.75959419 Ry
     hartree contribution      =     177.89027320 Ry
     xc contribution           =      -7.02472281 Ry
     ewald contribution        =     160.10424143 Ry
     smearing contrib. (-TS)   =      -0.00002786 Ry

     convergence has been achieved in   6 iterations

     Writing output data file graphene.save

     init_run     :      2.56s CPU      2.70s WALL (       1 calls)
     electrons    :     18.55s CPU     19.77s WALL (       1 calls)

     Called by init_run:
     wfcinit      :      0.60s CPU      0.63s WALL (       1 calls)
     potinit      :      0.88s CPU      0.91s WALL (       1 calls)

     Called by electrons:
     c_bands      :     11.23s CPU     11.53s WALL (       6 calls)
     sum_band     :      3.79s CPU      4.09s WALL (       6 calls)
     v_of_rho     :      1.72s CPU      1.89s WALL (       7 calls)
     newd         :      1.66s CPU      1.78s WALL (       7 calls)
     mix_rho      :      0.23s CPU      0.25s WALL (       6 calls)

     Called by c_bands:
     init_us_2    :      0.22s CPU      0.24s WALL (     156 calls)
     cegterg      :     10.94s CPU     11.23s WALL (      72 calls)

     Called by *egterg:
     h_psi        :     10.22s CPU     10.48s WALL (     418 calls)
     s_psi        :      0.14s CPU      0.14s WALL (     418 calls)
     g_psi        :      0.07s CPU      0.07s WALL (     334 calls)
     cdiaghg      :      0.16s CPU      0.16s WALL (     406 calls)

     Called by h_psi:
     add_vuspsi   :      0.15s CPU      0.16s WALL (     418 calls)

     General routines
     calbec       :      0.27s CPU      0.27s WALL (     490 calls)
     fft          :      1.56s CPU      1.72s WALL (     107 calls)
     ffts         :      0.05s CPU      0.05s WALL (      13 calls)
     fftw         :      7.77s CPU      7.98s WALL (    4346 calls)
     interpolate  :      0.28s CPU      0.30s WALL (      13 calls)
     davcio       :      0.05s CPU      0.05s WALL (     228 calls)

     Parallel routines
     fft_scatter  :      3.85s CPU      4.10s WALL (    4466 calls)

     PWSCF        :    21.33s CPU        22.72s WALL


   This run was terminated on:   2: 8:34  26Jul2015            

=------------------------------------------------------------------------------=
   JOB DONE.
=------------------------------------------------------------------------------=
