
     Program PWSCF v.5.0.2 (svn rev. 9656) starts on 26Jul2015 at  3:13: 2 

     This program is part of the open-source Quantum ESPRESSO suite
     for quantum simulation of materials; please cite
         "P. Giannozzi et al., J. Phys.:Condens. Matter 21 395502 (2009);
          URL http://www.quantum-espresso.org", 
     in publications or presentations arising from this work. More details at
     http://www.quantum-espresso.org/quote.php

     Parallel version (MPI), running on     4 processors
     R & G space division:  proc/nbgrp/npool/nimage =       4

     Current dimensions of program PWSCF are:
     Max number of different atomic species (ntypx) = 10
     Max number of k-points (npk) =  40000
     Max angular momentum in pseudopotentials (lmaxx) =  3
     Waiting for input...
     Reading input from standard input
               file C.pbe-rrkjus.UPF: wavefunction(s)  2S 2P renormalized

     Subspace diagonalization in iterative solution of the eigenvalue problem:
     a serial algorithm will be used


     Parallelization info
     --------------------
     sticks:   dense  smooth     PW     G-vecs:    dense   smooth      PW
     Min         211     127     37                58589    27680    4649
     Max         212     128     38                58614    27712    4698
     Sum         847     511    151               234415   110781   18739



     bravais-lattice index     =            0
     lattice parameter (alat)  =       4.6500  a.u.
     unit-cell volume          =    1044.8904 (a.u.)^3
     number of atoms/cell      =            2
     number of atomic types    =            1
     number of electrons       =         8.00
     number of Kohn-Sham states=            8
     kinetic-energy cutoff     =      85.0000  Ry
     charge density cutoff     =     560.0000  Ry
     convergence threshold     =      1.0E-08
     mixing beta               =       0.7000
     number of iterations used =            8  plain     mixing
     Exchange-correlation      =  SLA  PW   PBE  PBE ( 1 4 3 4 0)
     EXX-fraction              =        0.00

     celldm(1)=   4.650000  celldm(2)=   0.000000  celldm(3)=   0.000000
     celldm(4)=   0.000000  celldm(5)=   0.000000  celldm(6)=   0.000000

     crystal axes: (cart. coord. in units of alat)
               a(1) = (   1.000000   0.000000   0.000000 )  
               a(2) = (   0.500000   0.866025   0.000000 )  
               a(3) = (   0.000000   0.000000  12.000000 )  

     reciprocal axes: (cart. coord. in units 2 pi/alat)
               b(1) = (  1.000000 -0.577350  0.000000 )  
               b(2) = (  0.000000  1.154701  0.000000 )  
               b(3) = (  0.000000  0.000000  0.083333 )  


     PseudoPot. # 1 for C  read from file:
     ./C.pbe-rrkjus.UPF
     MD5 check sum: 00fb224312de0c5b6853bd333518df6f
     Pseudo is Ultrasoft, Zval =  4.0
     Generated by new atomic code, or converted to UPF format
     Using radial grid of  627 points,  4 beta functions with: 
                l(1) =   0
                l(2) =   0
                l(3) =   1
                l(4) =   1
     Q(r) pseudized with 0 coefficients 


     atomic species   valence    mass     pseudopotential
        C              4.00    12.00000     C ( 1.00)

     24 Sym. Ops., with inversion, found (12 have fractional translation)



   Cartesian axes

     site n.     atom                  positions (alat units)
         1           C   tau(   1) = (   0.0000000   0.0000000   0.0000000  )
         2           C   tau(   2) = (   1.0000000   0.5773503   0.0000000  )

     number of k points=    24  gaussian smearing, width (Ry)=  0.0010
                       cart. coord. in units 2pi/alat
        k(    1) = (   0.0000000   0.0000000   0.0000000), wk =   0.0102041
        k(    2) = (   0.0000000   0.0824786   0.0000000), wk =   0.0612245
        k(    3) = (   0.0000000   0.1649572   0.0000000), wk =   0.0612245
        k(    4) = (   0.0000000   0.2474358   0.0000000), wk =   0.0612245
        k(    5) = (   0.0000000   0.3299144   0.0000000), wk =   0.0612245
        k(    6) = (   0.0000000   0.4123931   0.0000000), wk =   0.0612245
        k(    7) = (   0.0000000   0.4948717   0.0000000), wk =   0.0612245
        k(    8) = (   0.0000000  -0.5773503   0.0000000), wk =   0.0306122
        k(    9) = (   0.0714286   0.1237179   0.0000000), wk =   0.0612245
        k(   10) = (   0.0714286   0.2061965   0.0000000), wk =   0.1224490
        k(   11) = (   0.0714286   0.2886751   0.0000000), wk =   0.1224490
        k(   12) = (   0.0714286   0.3711537   0.0000000), wk =   0.1224490
        k(   13) = (   0.0714286   0.4536324   0.0000000), wk =   0.1224490
        k(   14) = (   0.0714286  -0.6185896   0.0000000), wk =   0.1224490
        k(   15) = (   0.1428571   0.2474358   0.0000000), wk =   0.0612245
        k(   16) = (   0.1428571   0.3299144   0.0000000), wk =   0.1224490
        k(   17) = (   0.1428571   0.4123931   0.0000000), wk =   0.1224490
        k(   18) = (   0.1428571  -0.6598289   0.0000000), wk =   0.1224490
        k(   19) = (   0.1428571  -0.5773503   0.0000000), wk =   0.0612245
        k(   20) = (   0.2142857   0.3711537   0.0000000), wk =   0.0612245
        k(   21) = (   0.2142857  -0.7010682   0.0000000), wk =   0.1224490
        k(   22) = (   0.2142857  -0.6185896   0.0000000), wk =   0.1224490
        k(   23) = (   0.2857143  -0.6598289   0.0000000), wk =   0.0612245
        k(   24) = (   0.2857143  -0.5773503   0.0000000), wk =   0.0612245

     Dense  grid:   234415 G-vectors     FFT dimensions: (  36,  36, 432)

     Smooth grid:   110781 G-vectors     FFT dimensions: (  27,  27, 360)

     Largest allocated arrays     est. size (Mb)     dimensions
        Kohn-Sham Wavefunctions         0.44 Mb     (   3605,    8)
        NL pseudopotentials             0.88 Mb     (   3605,   16)
        Each V/rho on FFT grid          2.14 Mb     ( 139968)
        Each G-vector array             0.45 Mb     (  58604)
        G-vector shells                 0.13 Mb     (  17362)
     Largest temporary arrays     est. size (Mb)     dimensions
        Auxiliary wavefunctions         1.76 Mb     (   3605,   32)
        Each subspace H/S matrix        0.02 Mb     (  32,  32)
        Each <psi_i|beta_j> matrix      0.00 Mb     (     16,    8)
        Arrays for rho mixing          17.09 Mb     ( 139968,   8)

     Initial potential from superposition of free atoms

     starting charge    7.99989, renormalised to    8.00000

     negative rho (up, down):  0.254E-04 0.000E+00
     Starting wfc are    8 randomized atomic wfcs

     total cpu time spent up to now is        5.5 secs

     per-process dynamical memory:    30.6 Mb

     Self-consistent Calculation

     iteration #  1     ecut=    85.00 Ry     beta=0.70
     Davidson diagonalization with overlap
     ethr =  1.00E-02,  avg # of iterations =  5.0

     negative rho (up, down):  0.176E-04 0.000E+00

     total cpu time spent up to now is       23.2 secs

     total energy              =     -22.75970801 Ry
     Harris-Foulkes estimate   =     -22.88420308 Ry
     estimated scf accuracy    <       0.20660661 Ry

     iteration #  2     ecut=    85.00 Ry     beta=0.70
     Davidson diagonalization with overlap
     ethr =  2.58E-03,  avg # of iterations =  4.1

     negative rho (up, down):  0.170E-04 0.000E+00

     total cpu time spent up to now is       37.8 secs

     total energy              =     -22.79087065 Ry
     Harris-Foulkes estimate   =     -22.79100667 Ry
     estimated scf accuracy    <       0.00250856 Ry

     iteration #  3     ecut=    85.00 Ry     beta=0.70
     Davidson diagonalization with overlap
     ethr =  3.14E-05,  avg # of iterations = 11.1

     negative rho (up, down):  0.186E-04 0.000E+00

     total cpu time spent up to now is       62.2 secs

     total energy              =     -22.79121927 Ry
     Harris-Foulkes estimate   =     -22.79118899 Ry
     estimated scf accuracy    <       0.00013884 Ry

     iteration #  4     ecut=    85.00 Ry     beta=0.70
     Davidson diagonalization with overlap
     ethr =  1.74E-06,  avg # of iterations =  5.2

     negative rho (up, down):  0.187E-04 0.000E+00

     total cpu time spent up to now is       76.8 secs

     total energy              =     -22.79122455 Ry
     Harris-Foulkes estimate   =     -22.79122373 Ry
     estimated scf accuracy    <       0.00000088 Ry

     iteration #  5     ecut=    85.00 Ry     beta=0.70
     Davidson diagonalization with overlap
     ethr =  1.10E-08,  avg # of iterations =  2.5

     negative rho (up, down):  0.187E-04 0.000E+00

     total cpu time spent up to now is       90.9 secs

     total energy              =     -22.79122487 Ry
     Harris-Foulkes estimate   =     -22.79122487 Ry
     estimated scf accuracy    <       0.00000003 Ry

     iteration #  6     ecut=    85.00 Ry     beta=0.70
     Davidson diagonalization with overlap
     ethr =  3.21E-10,  avg # of iterations =  2.0

     negative rho (up, down):  0.186E-04 0.000E+00

     total cpu time spent up to now is      103.5 secs

     End of self-consistent calculation

          k = 0.0000 0.0000 0.0000 ( 13771 PWs)   bands (ev):

   -22.4915 -10.6018  -6.0249  -6.0249   0.3036   1.0417   1.2090   1.5613

          k = 0.0000 0.0825 0.0000 ( 13767 PWs)   bands (ev):

   -22.3708 -10.4572  -6.5070  -6.2787   0.4679   1.2087   1.3779   1.7293

          k = 0.0000 0.1650 0.0000 ( 13768 PWs)   bands (ev):

   -22.0096 -10.0262  -7.7706  -6.9083   0.9607   1.7093   1.8845   2.2332

          k = 0.0000 0.2474 0.0000 ( 13816 PWs)   bands (ev):

   -21.4109  -9.4727  -9.3183  -7.6701   1.7812   2.5403   2.7288   3.0712

          k = 0.0000 0.3299 0.0000 ( 13840 PWs)   bands (ev):

   -20.5805 -11.3449  -8.3818  -8.3551   2.9259   3.2623   3.7637   3.9106

          k = 0.0000 0.4124 0.0000 ( 13838 PWs)   bands (ev):

   -19.5294 -13.2205  -8.9403  -7.1885   1.3270   4.3611   4.7807   5.2143

          k = 0.0000 0.4949 0.0000 ( 13862 PWs)   bands (ev):

   -18.2868 -14.9855  -9.2920  -5.9773  -0.4215   4.5579   6.1957   7.0211

          k = 0.0000-0.5774 0.0000 ( 13870 PWs)   bands (ev):

   -17.2296 -16.2209  -9.4117  -5.3191  -1.2671   4.5016   8.1870   8.3399

          k = 0.0714 0.1237 0.0000 ( 13771 PWs)   bands (ev):

   -22.1298 -10.1693  -7.3144  -6.7867   0.7965   1.5426   1.7156   2.0656

          k = 0.0714 0.2062 0.0000 ( 13785 PWs)   bands (ev):

   -21.6499  -9.5994  -8.6899  -7.5920   1.4536   2.2090   2.3911   2.7366

          k = 0.0714 0.2887 0.0000 ( 13822 PWs)   bands (ev):

   -20.9354 -10.4123  -8.7620  -8.3950   2.4374   3.1973   3.4042   3.7344

          k = 0.0714 0.3712 0.0000 ( 13846 PWs)   bands (ev):

   -19.9943 -12.2549  -9.0618  -7.6892   2.2277   3.7422   4.5469   4.7547

          k = 0.0714 0.4536 0.0000 ( 13854 PWs)   bands (ev):

   -18.8436 -14.0644  -9.5309  -6.4664   0.3569   5.1172   5.4320   6.1899

          k = 0.0714-0.6186 0.0000 ( 13870 PWs)   bands (ev):

   -17.5583 -15.6943  -9.7719  -5.4008  -1.0583   5.0472   7.3089   8.1226

          k = 0.1429 0.2474 0.0000 ( 13799 PWs)   bands (ev):

   -21.0541  -9.8597  -8.8987  -8.6667   2.2746   3.0395   3.2354   3.5748

          k = 0.1429 0.3299 0.0000 ( 13814 PWs)   bands (ev):

   -20.2288 -11.3524  -9.6269  -7.9448   2.8295   3.4202   4.1990   4.4175

          k = 0.1429 0.4124 0.0000 ( 13818 PWs)   bands (ev):

   -19.1861 -13.0467 -10.2890  -6.7857   1.0529   4.8828   5.6704   5.9369

          k = 0.1429-0.6598 0.0000 ( 13842 PWs)   bands (ev):

   -17.9576 -14.7252 -10.6780  -5.5656  -0.5823   6.4549   6.7122   7.4075

          k = 0.1429-0.5774 0.0000 ( 13862 PWs)   bands (ev):

   -16.9204 -15.9207 -10.8070  -4.8779  -1.4163   6.4403   8.6031   8.7892

          k = 0.2143 0.3712 0.0000 ( 13813 PWs)   bands (ev):

   -19.3013 -12.3820 -10.8984  -6.8959   1.3486   4.7229   5.4895   5.7682

          k = 0.2143-0.7011 0.0000 ( 13829 PWs)   bands (ev):

   -18.1737 -13.7230 -11.7108  -5.6832  -0.1828   6.3304   7.0065   7.4563

          k = 0.2143-0.6186 0.0000 ( 13843 PWs)   bands (ev):

   -16.9260 -15.1683 -12.0546  -4.5565  -1.4816   8.1528   8.1583   8.3923

          k = 0.2857-0.6598 0.0000 ( 13845 PWs)   bands (ev):

   -16.9989 -14.4691 -12.8680  -4.4611  -1.4502   7.8171   8.0385   9.3117

          k = 0.2857-0.5774 0.0000 ( 13859 PWs)   bands (ev):

   -15.9957 -15.3315 -13.2632  -3.5698  -2.3502   7.7878   9.6495   9.7592

     the Fermi energy is    -3.3375 ev

!    total energy              =     -22.79122488 Ry
     Harris-Foulkes estimate   =     -22.79122488 Ry
     estimated scf accuracy    <          7.4E-10 Ry

     The total energy is the sum of the following terms:

     one-electron contribution =    -353.76103490 Ry
     hartree contribution      =     177.89013906 Ry
     xc contribution           =      -7.02457046 Ry
     ewald contribution        =     160.10424143 Ry
     smearing contrib. (-TS)   =      -0.00000000 Ry

     convergence has been achieved in   6 iterations

     Writing output data file graphene.save

     init_run     :      5.17s CPU      5.40s WALL (       1 calls)
     electrons    :     92.24s CPU     97.99s WALL (       1 calls)

     Called by init_run:
     wfcinit      :      2.75s CPU      2.86s WALL (       1 calls)
     potinit      :      1.12s CPU      1.15s WALL (       1 calls)

     Called by electrons:
     c_bands      :     70.53s CPU     75.01s WALL (       6 calls)
     sum_band     :     15.49s CPU     16.28s WALL (       6 calls)
     v_of_rho     :      2.68s CPU      2.92s WALL (       7 calls)
     newd         :      3.00s CPU      3.13s WALL (       7 calls)
     mix_rho      :      0.43s CPU      0.45s WALL (       6 calls)

     Called by c_bands:
     init_us_2    :      0.92s CPU      1.07s WALL (     312 calls)
     cegterg      :     69.23s CPU     73.50s WALL (     144 calls)

     Called by *egterg:
     h_psi        :     64.55s CPU     68.51s WALL (     882 calls)
     s_psi        :      0.92s CPU      0.93s WALL (     882 calls)
     g_psi        :      0.32s CPU      0.33s WALL (     714 calls)
     cdiaghg      :      0.40s CPU      0.42s WALL (     858 calls)

     Called by h_psi:
     add_vuspsi   :      0.87s CPU      0.91s WALL (     882 calls)

     General routines
     calbec       :      1.36s CPU      1.46s WALL (    1026 calls)
     fft          :      2.54s CPU      2.79s WALL (     107 calls)
     ffts         :      0.15s CPU      0.16s WALL (      13 calls)
     fftw         :     54.02s CPU     57.86s WALL (    8770 calls)
     interpolate  :      0.56s CPU      0.58s WALL (      13 calls)
     davcio       :      0.29s CPU      0.37s WALL (     456 calls)

     Parallel routines
     fft_scatter  :     25.58s CPU     29.04s WALL (    8890 calls)

     PWSCF        :  1m37.74s CPU     1m43.76s WALL


   This run was terminated on:   3:14:46  26Jul2015            

=------------------------------------------------------------------------------=
   JOB DONE.
=------------------------------------------------------------------------------=
