
     Program PWSCF v.5.0.2 (svn rev. 9656) starts on 12Jul2015 at  2:42:32 

     This program is part of the open-source Quantum ESPRESSO suite
     for quantum simulation of materials; please cite
         "P. Giannozzi et al., J. Phys.:Condens. Matter 21 395502 (2009);
          URL http://www.quantum-espresso.org", 
     in publications or presentations arising from this work. More details at
     http://www.quantum-espresso.org/quote.php

     Parallel version (MPI), running on     4 processors
     R & G space division:  proc/nbgrp/npool/nimage =       4

     Current dimensions of program PWSCF are:
     Max number of different atomic species (ntypx) = 10
     Max number of k-points (npk) =  40000
     Max angular momentum in pseudopotentials (lmaxx) =  3
     Waiting for input...
     Reading input from standard input
               file Al.pbe-n-kjpaw_psl.0.1.UPF: wavefunction(s)  3S renormalized

     Subspace diagonalization in iterative solution of the eigenvalue problem:
     a serial algorithm will be used


     Parallelization info
     --------------------
     sticks:   dense  smooth     PW     G-vecs:    dense   smooth      PW
     Min         211     211     63                 4064     4064     682
     Max         212     212     64                 4067     4067     686
     Sum         847     847    253                16265    16265    2733



     bravais-lattice index     =            2
     lattice parameter (alat)  =       7.6300  a.u.
     unit-cell volume          =     111.0487 (a.u.)^3
     number of atoms/cell      =            1
     number of atomic types    =            1
     number of electrons       =         3.00
     number of Kohn-Sham states=            6
     kinetic-energy cutoff     =     105.0000  Ry
     charge density cutoff     =     420.0000  Ry
     convergence threshold     =      1.0E-07
     mixing beta               =       0.7000
     number of iterations used =            8  plain     mixing
     Exchange-correlation      =  SLA  PW   PBX  PBC ( 1 4 3 4 0)
     EXX-fraction              =        0.00

     celldm(1)=   7.630000  celldm(2)=   0.000000  celldm(3)=   0.000000
     celldm(4)=   0.000000  celldm(5)=   0.000000  celldm(6)=   0.000000

     crystal axes: (cart. coord. in units of alat)
               a(1) = (  -0.500000   0.000000   0.500000 )  
               a(2) = (   0.000000   0.500000   0.500000 )  
               a(3) = (  -0.500000   0.500000   0.000000 )  

     reciprocal axes: (cart. coord. in units 2 pi/alat)
               b(1) = ( -1.000000 -1.000000  1.000000 )  
               b(2) = (  1.000000  1.000000  1.000000 )  
               b(3) = ( -1.000000  1.000000 -1.000000 )  


     PseudoPot. # 1 for Al read from file:
     ./Al.pbe-n-kjpaw_psl.0.1.UPF
     MD5 check sum: 023d9faf819c76fc4df1f064efe7b7b2
     Pseudo is Projector augmented-wave + core cor, Zval =  3.0
     Generated using "atomic" code by A. Dal Corso  v.5.0.2 svn rev. 9415
     Shape of augmentation charge: PSQ
     Using radial grid of 1135 points,  4 beta functions with: 
                l(1) =   0
                l(2) =   0
                l(3) =   1
                l(4) =   1
     Q(r) pseudized with 0 coefficients 


     atomic species   valence    mass     pseudopotential
        Al             3.00    26.98154     Al( 1.00)

     48 Sym. Ops., with inversion, found



   Cartesian axes

     site n.     atom                  positions (alat units)
         1           Al  tau(   1) = (   0.0000000   0.0000000   0.0000000  )

     number of k points=   120  gaussian smearing, width (Ry)=  0.0030

     Number of k-points >= 100: set verbosity='high' to print them.

     Dense  grid:    16265 G-vectors     FFT dimensions: (  36,  36,  36)

     Largest allocated arrays     est. size (Mb)     dimensions
        Kohn-Sham Wavefunctions         0.05 Mb     (    516,    6)
        NL pseudopotentials             0.06 Mb     (    516,    8)
        Each V/rho on FFT grid          0.18 Mb     (  11664)
        Each G-vector array             0.03 Mb     (   4067)
        G-vector shells                 0.00 Mb     (    209)
     Largest temporary arrays     est. size (Mb)     dimensions
        Auxiliary wavefunctions         0.19 Mb     (    516,   24)
        Each subspace H/S matrix        0.01 Mb     (  24,  24)
        Each <psi_i|beta_j> matrix      0.00 Mb     (      8,    6)
        Arrays for rho mixing           1.42 Mb     (  11664,   8)

     Initial potential from superposition of free atoms

     starting charge    2.99771, renormalised to    3.00000
     Starting wfc are    4 randomized atomic wfcs
     Checking if some PAW data can be deallocated... 

     total cpu time spent up to now is        3.7 secs

     per-process dynamical memory:    10.1 Mb

     Self-consistent Calculation

     iteration #  1     ecut=   105.00 Ry     beta=0.70
     Davidson diagonalization with overlap
     ethr =  1.00E-02,  avg # of iterations =  5.0

     Threshold (ethr) on eigenvalues was too large:
     Diagonalizing with lowered threshold

     Davidson diagonalization with overlap
     ethr =  1.97E-04,  avg # of iterations =  2.2

     total cpu time spent up to now is       22.7 secs

     total energy              =     -39.50302680 Ry
     Harris-Foulkes estimate   =     -39.50444262 Ry
     estimated scf accuracy    <       0.00559694 Ry

     iteration #  2     ecut=   105.00 Ry     beta=0.70
     Davidson diagonalization with overlap
     ethr =  1.87E-04,  avg # of iterations =  1.1

     total cpu time spent up to now is       29.0 secs

     total energy              =     -39.50298775 Ry
     Harris-Foulkes estimate   =     -39.50309485 Ry
     estimated scf accuracy    <       0.00040597 Ry

     iteration #  3     ecut=   105.00 Ry     beta=0.70
     Davidson diagonalization with overlap
     ethr =  1.35E-05,  avg # of iterations =  1.9

     total cpu time spent up to now is       35.9 secs

     total energy              =     -39.50300898 Ry
     Harris-Foulkes estimate   =     -39.50300953 Ry
     estimated scf accuracy    <       0.00000136 Ry

     iteration #  4     ecut=   105.00 Ry     beta=0.70
     Davidson diagonalization with overlap
     ethr =  4.54E-08,  avg # of iterations =  3.1

     total cpu time spent up to now is       43.9 secs

     total energy              =     -39.50301022 Ry
     Harris-Foulkes estimate   =     -39.50301023 Ry
     estimated scf accuracy    <       0.00000011 Ry

     iteration #  5     ecut=   105.00 Ry     beta=0.70
     Davidson diagonalization with overlap
     ethr =  3.51E-09,  avg # of iterations =  1.6

     total cpu time spent up to now is       50.1 secs

     total energy              =     -39.50301018 Ry
     Harris-Foulkes estimate   =     -39.50301024 Ry
     estimated scf accuracy    <       0.00000018 Ry

     iteration #  6     ecut=   105.00 Ry     beta=0.70
     Davidson diagonalization with overlap
     ethr =  3.51E-09,  avg # of iterations =  1.0

     total cpu time spent up to now is       55.9 secs

     End of self-consistent calculation

     Number of k-points >= 100: set verbosity='high' to print the bands.

     the Fermi energy is     8.0820 ev

!    total energy              =     -39.50301018 Ry
     Harris-Foulkes estimate   =     -39.50301018 Ry
     estimated scf accuracy    <          6.5E-11 Ry

     total all-electron energy =      -485.645792 Ry

     The total energy is the sum of the following terms:

     one-electron contribution =       3.16812278 Ry
     hartree contribution      =       0.00566067 Ry
     xc contribution           =      -3.03142655 Ry
     ewald contribution        =      -5.40809419 Ry
     one-center paw contrib.   =     -34.23724754 Ry
     smearing contrib. (-TS)   =      -0.00002535 Ry

     convergence has been achieved in   6 iterations

     Writing output data file Al.save

     init_run     :      1.72s CPU      3.11s WALL (       1 calls)
     electrons    :     25.16s CPU     52.17s WALL (       1 calls)

     Called by init_run:
     wfcinit      :      1.18s CPU      2.29s WALL (       1 calls)
     potinit      :      0.11s CPU      0.18s WALL (       1 calls)

     Called by electrons:
     c_bands      :     20.49s CPU     42.49s WALL (       7 calls)
     sum_band     :      4.02s CPU      8.48s WALL (       7 calls)
     v_of_rho     :      0.18s CPU      0.28s WALL (       7 calls)
     newd         :      0.07s CPU      0.12s WALL (       7 calls)
     mix_rho      :      0.09s CPU      0.19s WALL (       7 calls)

     Called by c_bands:
     init_us_2    :      0.62s CPU      0.82s WALL (    1800 calls)
     cegterg      :     19.87s CPU     41.69s WALL (     840 calls)

     Called by *egterg:
     h_psi        :     18.43s CPU     38.58s WALL (    2856 calls)
     s_psi        :      0.16s CPU      0.19s WALL (    2856 calls)
     g_psi        :      0.13s CPU      0.19s WALL (    1896 calls)
     cdiaghg      :      0.75s CPU      1.52s WALL (    2616 calls)

     Called by h_psi:
     add_vuspsi   :      0.15s CPU      0.21s WALL (    2856 calls)

     General routines
     calbec       :      0.43s CPU      1.23s WALL (    3696 calls)
     fft          :      0.10s CPU      0.25s WALL (      93 calls)
     fftw         :     19.92s CPU     42.48s WALL (   31714 calls)
     davcio       :      0.09s CPU      0.13s WALL (    2640 calls)

     Parallel routines
     fft_scatter  :      7.17s CPU     26.04s WALL (   31807 calls)

     PAW routines
     PAW_pot      :      0.39s CPU      0.70s WALL (       7 calls)
     PAW_ddot     :      0.07s CPU      0.13s WALL (      37 calls)
     PAW_symme    :      0.00s CPU      0.01s WALL (      14 calls)

     PWSCF        :    27.86s CPU        56.47s WALL


   This run was terminated on:   2:43:28  12Jul2015            

=------------------------------------------------------------------------------=
   JOB DONE.
=------------------------------------------------------------------------------=
