
     Program PWSCF v.5.0.2 (svn rev. 9656) starts on 27Feb2016 at 19:14:11 

     This program is part of the open-source Quantum ESPRESSO suite
     for quantum simulation of materials; please cite
         "P. Giannozzi et al., J. Phys.:Condens. Matter 21 395502 (2009);
          URL http://www.quantum-espresso.org", 
     in publications or presentations arising from this work. More details at
     http://www.quantum-espresso.org/quote.php

     Parallel version (MPI), running on     4 processors
     R & G space division:  proc/nbgrp/npool/nimage =       4

     Current dimensions of program PWSCF are:
     Max number of different atomic species (ntypx) = 10
     Max number of k-points (npk) =  40000
     Max angular momentum in pseudopotentials (lmaxx) =  3
     Waiting for input...
     Reading input from standard input
               file Cu.pbe.UPF: wavefunction(s)  4S 3D renormalized

     Subspace diagonalization in iterative solution of the eigenvalue problem:
     a serial algorithm will be used


     Parallelization info
     --------------------
     sticks:   dense  smooth     PW     G-vecs:    dense   smooth      PW
     Min         197     197     60                 3661     3661     610
     Max         199     199     61                 3663     3663     613
     Sum         793     793    241                14649    14649    2445



     bravais-lattice index     =            2
     lattice parameter (alat)  =       9.8000  a.u.
     unit-cell volume          =     235.2980 (a.u.)^3
     number of atoms/cell      =            2
     number of atomic types    =            1
     number of electrons       =        22.00
     number of Kohn-Sham states=           15
     kinetic-energy cutoff     =      60.0000  Ry
     charge density cutoff     =     240.0000  Ry
     convergence threshold     =      1.0E-07
     mixing beta               =       0.7000
     number of iterations used =            8  plain     mixing
     Exchange-correlation      =  SLA  PW   PBX  PBC ( 1 4 3 4 0)
     EXX-fraction              =        0.00

     celldm(1)=   9.800000  celldm(2)=   0.000000  celldm(3)=   0.000000
     celldm(4)=   0.000000  celldm(5)=   0.000000  celldm(6)=   0.000000

     crystal axes: (cart. coord. in units of alat)
               a(1) = (  -0.500000   0.000000   0.500000 )  
               a(2) = (   0.000000   0.500000   0.500000 )  
               a(3) = (  -0.500000   0.500000   0.000000 )  

     reciprocal axes: (cart. coord. in units 2 pi/alat)
               b(1) = ( -1.000000 -1.000000  1.000000 )  
               b(2) = (  1.000000  1.000000  1.000000 )  
               b(3) = ( -1.000000  1.000000 -1.000000 )  


     PseudoPot. # 1 for Cu read from file:
     ./Cu.pbe.UPF
     MD5 check sum: 0c51aa2b3b25e0d1c3270f17c0a46a12
     Pseudo is Projector augmented-wave + core cor, Zval = 11.0
     Generated using "atomic" code by A. Dal Corso  v.5.0.99 svn rev. 10869
     Shape of augmentation charge: BESSEL
     Using radial grid of 1199 points,  6 beta functions with: 
                l(1) =   0
                l(2) =   0
                l(3) =   1
                l(4) =   1
                l(5) =   2
                l(6) =   2
     Q(r) pseudized with 0 coefficients 


     atomic species   valence    mass     pseudopotential
        Cu            11.00    63.54600     Cu( 1.00)

     48 Sym. Ops., with inversion, found (24 have fractional translation)



   Cartesian axes

     site n.     atom                  positions (alat units)
         1           Cu  tau(   1) = (   0.0000000   0.0000000   0.0000000  )
         2           Cu  tau(   2) = (   0.2500000   0.2500000   0.2500000  )

     number of k points=    35  gaussian smearing, width (Ry)=  0.0030
                       cart. coord. in units 2pi/alat
        k(    1) = (   0.0000000   0.0000000   0.0000000), wk =   0.0027435
        k(    2) = (  -0.1111111   0.1111111  -0.1111111), wk =   0.0219479
        k(    3) = (  -0.2222222   0.2222222  -0.2222222), wk =   0.0219479
        k(    4) = (  -0.3333333   0.3333333  -0.3333333), wk =   0.0219479
        k(    5) = (  -0.4444444   0.4444444  -0.4444444), wk =   0.0219479
        k(    6) = (   0.0000000   0.2222222   0.0000000), wk =   0.0164609
        k(    7) = (  -0.1111111   0.3333333  -0.1111111), wk =   0.0658436
        k(    8) = (  -0.2222222   0.4444444  -0.2222222), wk =   0.0658436
        k(    9) = (  -0.3333333   0.5555556  -0.3333333), wk =   0.0658436
        k(   10) = (   0.5555556  -0.3333333   0.5555556), wk =   0.0658436
        k(   11) = (   0.4444444  -0.2222222   0.4444444), wk =   0.0658436
        k(   12) = (   0.3333333  -0.1111111   0.3333333), wk =   0.0658436
        k(   13) = (   0.2222222  -0.0000000   0.2222222), wk =   0.0329218
        k(   14) = (   0.0000000   0.4444444   0.0000000), wk =   0.0164609
        k(   15) = (  -0.1111111   0.5555556  -0.1111111), wk =   0.0658436
        k(   16) = (  -0.2222222   0.6666667  -0.2222222), wk =   0.0658436
        k(   17) = (   0.6666667  -0.2222222   0.6666667), wk =   0.0658436
        k(   18) = (   0.5555556  -0.1111111   0.5555556), wk =   0.0658436
        k(   19) = (   0.4444444   0.0000000   0.4444444), wk =   0.0329218
        k(   20) = (   0.0000000   0.6666667   0.0000000), wk =   0.0164609
        k(   21) = (  -0.1111111   0.7777778  -0.1111111), wk =   0.0658436
        k(   22) = (   0.7777778  -0.1111111   0.7777778), wk =   0.0658436
        k(   23) = (   0.6666667  -0.0000000   0.6666667), wk =   0.0329218
        k(   24) = (   0.0000000   0.8888889   0.0000000), wk =   0.0164609
        k(   25) = (   0.8888889   0.0000000   0.8888889), wk =   0.0329218
        k(   26) = (  -0.2222222   0.4444444   0.0000000), wk =   0.0658436
        k(   27) = (  -0.3333333   0.5555556  -0.1111111), wk =   0.1316872
        k(   28) = (   0.5555556  -0.3333333   0.7777778), wk =   0.1316872
        k(   29) = (  -0.2222222   0.6666667   0.0000000), wk =   0.0658436
        k(   30) = (   0.6666667  -0.2222222   0.8888889), wk =   0.1316872
        k(   31) = (   0.5555556  -0.1111111   0.7777778), wk =   0.1316872
        k(   32) = (   0.4444444   0.0000000   0.6666667), wk =   0.0658436
        k(   33) = (   0.7777778  -0.1111111   1.0000000), wk =   0.0658436
        k(   34) = (   0.6666667  -0.0000000   0.8888889), wk =   0.0658436
        k(   35) = (   0.5555556  -0.1111111   1.0000000), wk =   0.0658436

     Dense  grid:    14649 G-vectors     FFT dimensions: (  36,  36,  36)

     Largest allocated arrays     est. size (Mb)     dimensions
        Kohn-Sham Wavefunctions         0.11 Mb     (    474,   15)
        NL pseudopotentials             0.26 Mb     (    474,   36)
        Each V/rho on FFT grid          0.18 Mb     (  11664)
        Each G-vector array             0.03 Mb     (   3662)
        G-vector shells                 0.00 Mb     (    196)
     Largest temporary arrays     est. size (Mb)     dimensions
        Auxiliary wavefunctions         0.43 Mb     (    474,   60)
        Each subspace H/S matrix        0.05 Mb     (  60,  60)
        Each <psi_i|beta_j> matrix      0.01 Mb     (     36,   15)
        Arrays for rho mixing           1.42 Mb     (  11664,   8)

     Check: negative/imaginary core charge=   -0.000019    0.000000

     Initial potential from superposition of free atoms

     starting charge   21.99954, renormalised to   22.00000
     Starting wfc are   18 randomized atomic wfcs
     Checking if some PAW data can be deallocated... 

     total cpu time spent up to now is        2.7 secs

     per-process dynamical memory:    11.7 Mb

     Self-consistent Calculation

     iteration #  1     ecut=    60.00 Ry     beta=0.70
     Davidson diagonalization with overlap
     ethr =  1.00E-02,  avg # of iterations =  3.7

     Threshold (ethr) on eigenvalues was too large:
     Diagonalizing with lowered threshold

     Davidson diagonalization with overlap
     ethr =  4.42E-05,  avg # of iterations =  4.2

     total cpu time spent up to now is        8.8 secs

     total energy              =    -426.02843578 Ry
     Harris-Foulkes estimate   =    -426.03213744 Ry
     estimated scf accuracy    <       0.01121909 Ry

     iteration #  2     ecut=    60.00 Ry     beta=0.70
     Davidson diagonalization with overlap
     ethr =  5.10E-05,  avg # of iterations =  2.8

     total cpu time spent up to now is       11.9 secs

     total energy              =    -426.02562895 Ry
     Harris-Foulkes estimate   =    -426.03761630 Ry
     estimated scf accuracy    <       0.02956216 Ry

     iteration #  3     ecut=    60.00 Ry     beta=0.70
     Davidson diagonalization with overlap
     ethr =  5.10E-05,  avg # of iterations =  2.3

     total cpu time spent up to now is       14.8 secs

     total energy              =    -426.03168848 Ry
     Harris-Foulkes estimate   =    -426.03213968 Ry
     estimated scf accuracy    <       0.00172525 Ry

     iteration #  4     ecut=    60.00 Ry     beta=0.70
     Davidson diagonalization with overlap
     ethr =  7.84E-06,  avg # of iterations =  1.3

     total cpu time spent up to now is       17.2 secs

     total energy              =    -426.03190141 Ry
     Harris-Foulkes estimate   =    -426.03190162 Ry
     estimated scf accuracy    <       0.00000101 Ry

     iteration #  5     ecut=    60.00 Ry     beta=0.70
     Davidson diagonalization with overlap
     ethr =  4.61E-09,  avg # of iterations =  4.0

     total cpu time spent up to now is       21.3 secs

     total energy              =    -426.03191724 Ry
     Harris-Foulkes estimate   =    -426.03191759 Ry
     estimated scf accuracy    <       0.00000143 Ry

     iteration #  6     ecut=    60.00 Ry     beta=0.70
     Davidson diagonalization with overlap
     ethr =  4.61E-09,  avg # of iterations =  1.8

     total cpu time spent up to now is       23.7 secs

     End of self-consistent calculation

          k = 0.0000 0.0000 0.0000 (  1837 PWs)   bands (ev):

     1.5232   5.0830   5.0830   5.0830   5.0882   5.0882   6.3155   6.3155
     6.3155   7.0770   7.0770  18.7543  18.7543  18.7543  19.5823

          k =-0.1111 0.1111-0.1111 (  1868 PWs)   bands (ev):

     1.7308   4.9789   4.9789   5.0894   5.2271   5.2271   6.2653   6.3092
     6.3092   7.0773   7.0773  16.1062  17.8747  17.8747  20.2363

          k =-0.2222 0.2222-0.2222 (  1862 PWs)   bands (ev):

     2.3322   4.9398   4.9398   5.1163   5.3318   5.3318   6.1438   6.3274
     6.3274   7.0689   7.0689  13.0970  16.9193  16.9193  20.0407

          k =-0.3333 0.3333-0.3333 (  1853 PWs)   bands (ev):

     3.2259   4.9740   4.9740   5.1620   5.3252   5.3252   6.0742   6.4240
     6.4240   7.0352   7.0352  10.4480  16.2327  16.2327  19.9508

          k =-0.4444 0.4444-0.4444 (  1862 PWs)   bands (ev):

     4.0444   5.0613   5.0613   5.1484   5.2311   5.2311   6.3772   6.5439
     6.5439   6.9841   6.9841   8.4189  15.8715  15.8715  20.0464

          k = 0.0000 0.2222 0.0000 (  1852 PWs)   bands (ev):

     1.8006   4.8802   5.0960   5.0960   5.1533   5.3057   6.1362   6.3684
     6.3684   7.0228   7.1211  16.7198  16.7198  17.5791  18.6332

          k =-0.1111 0.3333-0.1111 (  1854 PWs)   bands (ev):

     2.2732   4.8134   5.0671   5.1100   5.2656   5.4193   5.9814   6.3964
     6.4309   6.9713   7.1454  14.1336  15.7606  16.8724  18.9588

          k =-0.2222 0.4444-0.2222 (  1854 PWs)   bands (ev):

     3.0810   4.8157   5.0798   5.1327   5.3019   5.4628   5.9133   6.4356
     6.5266   6.9272   7.1439  11.3824  15.1657  15.8653  18.6643

          k =-0.3333 0.5556-0.3333 (  1848 PWs)   bands (ev):

     3.9709   4.8678   5.0999   5.1361   5.2813   5.3932   6.0743   6.5716
     6.6472   6.9378   7.1024   9.0765  14.9666  15.0168  18.4775

          k = 0.5556-0.3333 0.5556 (  1847 PWs)   bands (ev):

     4.2928   4.9304   5.0183   5.1519   5.2787   5.3526   6.3204   6.4660
     6.9408   7.0316   7.0419   8.0738  14.3865  15.3470  18.6738

          k = 0.4444-0.2222 0.4444 (  1846 PWs)   bands (ev):

     3.6890   4.9134   5.0239   5.1647   5.2383   5.4520   6.1271   6.3066
     6.6808   6.9200   7.1114   9.7953  14.2287  16.1158  19.2412

          k = 0.3333-0.1111 0.3333 (  1863 PWs)   bands (ev):

     2.7788   4.8585   5.0313   5.1078   5.2862   5.4670   6.0620   6.2156
     6.5538   6.9492   7.1400  12.2818  14.5070  17.1989  20.1652

          k = 0.2222-0.0000 0.2222 (  1867 PWs)   bands (ev):

     2.0709   4.8803   5.0134   5.1002   5.2511   5.3640   6.1546   6.2408
     6.4286   7.0154   7.1229  15.0648  15.2529  18.2503  20.1606

          k = 0.0000 0.4444 0.0000 (  1848 PWs)   bands (ev):

     2.6124   4.7155   5.1197   5.1197   5.3393   5.5196   5.7314   6.5370
     6.5370   6.8646   7.1880  14.7042  14.7042  15.2242  17.5616

          k =-0.1111 0.5556-0.1111 (  1852 PWs)   bands (ev):

     3.3018   4.6868   5.1162   5.1236   5.4398   5.5451   5.6299   6.6293
     6.6397   6.8004   7.2215  12.4582  14.0083  14.2276  17.6050

          k =-0.2222 0.6667-0.2222 (  1851 PWs)   bands (ev):

     4.1465   4.7139   5.0757   5.1058   5.4830   5.4961   5.7721   6.5367
     6.8505   6.9235   7.2581  10.0696  13.0916  13.7980  17.5103

          k = 0.6667-0.2222 0.6667 (  1838 PWs)   bands (ev):

     4.6144   4.7667   5.0318   5.0662   5.3976   5.5682   6.0775   6.3565
     7.0672   7.1020   7.7513   8.1584  12.2340  14.1293  17.6923

          k = 0.5556-0.1111 0.5556 (  1840 PWs)   bands (ev):

     4.2935   4.9232   4.9300   5.1382   5.2585   5.6448   6.1785   6.2438
     6.9317   7.0354   7.1505   9.4855  11.8058  14.9571  18.1959

          k = 0.4444 0.0000 0.4444 (  1853 PWs)   bands (ev):

     3.5286   4.8591   5.0205   5.1201   5.2489   5.6104   6.1032   6.1295
     6.7999   6.8235   7.1710  11.6512  11.9966  16.1287  19.0376

          k = 0.0000 0.6667 0.0000 (  1840 PWs)   bands (ev):

     3.8599   4.6342   5.1322   5.1322   5.2808   5.6195   5.6874   6.6161
     6.8050   6.8050   7.3096  12.3043  13.1607  13.1607  16.9182

          k =-0.1111 0.7778-0.1111 (  1833 PWs)   bands (ev):

     4.5734   4.6553   5.0204   5.1229   5.2912   5.7184   5.7474   6.4436
     6.9651   6.9750   7.4827  10.7651  11.8677  12.8040  16.9557

          k = 0.7778-0.1111 0.7778 (  1837 PWs)   bands (ev):

     4.6735   4.8894   5.0487   5.0767   5.4382   5.8276   5.8374   6.2346
     7.0904   7.1773   8.0694   9.2092  10.4966  13.0342  17.0751

          k = 0.6667-0.0000 0.6667 (  1842 PWs)   bands (ev):

     4.6248   4.9959   4.9993   5.0124   5.3516   5.8392   6.0958   6.1053
     7.1476   7.1825   7.7538   9.4183   9.9442  13.8081  17.4776

          k = 0.0000 0.8889 0.0000 (  1828 PWs)   bands (ev):

     4.6867   4.8979   5.1333   5.1333   5.1546   5.6918   5.9551   6.3014
     7.0425   7.0425   7.8729   9.6277  12.2759  12.2759  16.6684

          k = 0.8889 0.0000 0.8889 (  1830 PWs)   bands (ev):

     4.7261   4.8056   5.1181   5.1616   5.5073   5.6090   6.0826   6.1226
     7.0912   7.1298   8.6370   8.6615  11.2295  12.3589  16.7641

          k =-0.2222 0.4444 0.0000 (  1857 PWs)   bands (ev):

     2.8550   4.7657   5.0932   5.1110   5.3151   5.5314   5.8251   6.3961
     6.6097   6.8799   7.1773  13.2412  13.5278  16.1378  19.2338

          k =-0.3333 0.5556-0.1111 (  1852 PWs)   bands (ev):

     3.6956   4.7843   5.0339   5.1736   5.3141   5.5730   5.8443   6.4362
     6.7500   6.8632   7.1872  10.7896  13.0125  14.9778  19.0556

          k = 0.5556-0.3333 0.7778 (  1843 PWs)   bands (ev):

     4.4102   4.8146   4.9627   5.1953   5.3418   5.5032   6.0869   6.4147
     6.9899   7.0662   7.2449   8.6637  12.9839  14.1232  18.8908

          k =-0.2222 0.6667 0.0000 (  1847 PWs)   bands (ev):

     4.0194   4.6789   5.0326   5.1630   5.4787   5.5318   5.6880   6.5426
     6.8288   6.8770   7.2900  11.6266  12.2074  13.2771  18.4100

          k = 0.6667-0.2222 0.8889 (  1843 PWs)   bands (ev):

     4.6456   4.7088   4.9666   5.1769   5.5104   5.6156   5.8128   6.3582
     7.0438   7.0978   7.5217   9.7170  11.5513  12.5605  18.4761

          k = 0.5556-0.1111 0.7778 (  1846 PWs)   bands (ev):

     4.6765   4.8148   4.9797   5.1795   5.4242   5.7157   6.0204   6.1984
     7.1314   7.1713   8.0021   8.6775  10.9527  12.8718  18.7751

          k = 0.4444 0.0000 0.6667 (  1844 PWs)   bands (ev):

     4.3788   4.8093   4.9447   5.2153   5.3202   5.7352   5.8643   6.3609
     6.9713   7.0365   7.2444  10.3969  10.8647  13.7862  19.3096

          k = 0.7778-0.1111 1.0000 (  1837 PWs)   bands (ev):

     4.6956   4.8067   5.0849   5.1668   5.4140   5.6829   5.9002   6.2530
     7.1000   7.1011   7.9412   9.6987  11.4730  11.6404  18.0319

          k = 0.6667-0.0000 0.8889 (  1840 PWs)   bands (ev):

     4.6886   4.7988   5.1456   5.1595   5.5134   5.7977   5.9671   6.0684
     7.1490   7.2101   8.7540   8.9261  10.0481  11.9535  18.2861

          k = 0.5556-0.1111 1.0000 (  1846 PWs)   bands (ev):

     4.7170   4.7333   5.1041   5.2075   5.6112   5.7367   5.8689   6.1232
     7.1794   7.1957   8.2798   9.5004  10.3395  11.2736  20.3035

     the Fermi energy is     8.2798 ev

!    total energy              =    -426.03191741 Ry
     Harris-Foulkes estimate   =    -426.03191739 Ry
     estimated scf accuracy    <       0.00000004 Ry

     total all-electron energy =     -6619.791454 Ry

     The total energy is the sum of the following terms:

     one-electron contribution =    -108.31182724 Ry
     hartree contribution      =      54.61935946 Ry
     xc contribution           =     -73.52842685 Ry
     ewald contribution        =    -133.02093133 Ry
     one-center paw contrib.   =    -165.79003572 Ry
     smearing contrib. (-TS)   =      -0.00005573 Ry

     convergence has been achieved in   6 iterations

     Writing output data file Cu.save

     init_run     :      1.84s CPU      1.93s WALL (       1 calls)
     electrons    :     20.42s CPU     21.00s WALL (       1 calls)

     Called by init_run:
     wfcinit      :      0.87s CPU      0.90s WALL (       1 calls)
     potinit      :      0.34s CPU      0.37s WALL (       1 calls)

     Called by electrons:
     c_bands      :     15.20s CPU     15.54s WALL (       7 calls)
     sum_band     :      2.68s CPU      2.77s WALL (       7 calls)
     v_of_rho     :      0.14s CPU      0.15s WALL (       7 calls)
     newd         :      0.27s CPU      0.27s WALL (       7 calls)
     mix_rho      :      0.19s CPU      0.19s WALL (       7 calls)

     Called by c_bands:
     init_us_2    :      0.34s CPU      0.34s WALL (     525 calls)
     cegterg      :     14.38s CPU     14.68s WALL (     245 calls)

     Called by *egterg:
     h_psi        :     12.19s CPU     12.45s WALL (     986 calls)
     s_psi        :      0.40s CPU      0.39s WALL (     986 calls)
     g_psi        :      0.10s CPU      0.10s WALL (     706 calls)
     cdiaghg      :      1.07s CPU      1.07s WALL (     916 calls)

     Called by h_psi:
     add_vuspsi   :      0.39s CPU      0.40s WALL (     986 calls)

     General routines
     calbec       :      0.62s CPU      0.61s WALL (    1231 calls)
     fft          :      0.07s CPU      0.07s WALL (      93 calls)
     fftw         :     12.33s CPU     12.22s WALL (   25125 calls)
     davcio       :      0.06s CPU      0.06s WALL (     770 calls)

     Parallel routines
     fft_scatter  :      2.50s CPU      2.55s WALL (   25218 calls)

     PAW routines
     PAW_pot      :      2.27s CPU      2.42s WALL (       7 calls)
     PAW_ddot     :      0.18s CPU      0.18s WALL (      37 calls)
     PAW_symme    :      0.01s CPU      0.01s WALL (      14 calls)

     PWSCF        :    23.27s CPU        23.96s WALL


   This run was terminated on:  19:14:35  27Feb2016            

=------------------------------------------------------------------------------=
   JOB DONE.
=------------------------------------------------------------------------------=
