
     Program PWSCF v.5.0.2 (svn rev. 9656) starts on 26Jul2015 at  3:35:16 

     This program is part of the open-source Quantum ESPRESSO suite
     for quantum simulation of materials; please cite
         "P. Giannozzi et al., J. Phys.:Condens. Matter 21 395502 (2009);
          URL http://www.quantum-espresso.org", 
     in publications or presentations arising from this work. More details at
     http://www.quantum-espresso.org/quote.php

     Parallel version (MPI), running on     4 processors
     R & G space division:  proc/nbgrp/npool/nimage =       4

     Current dimensions of program PWSCF are:
     Max number of different atomic species (ntypx) = 10
     Max number of k-points (npk) =  40000
     Max angular momentum in pseudopotentials (lmaxx) =  3
     Waiting for input...
     Reading input from standard input
               file C.pbe-rrkjus.UPF: wavefunction(s)  2S 2P renormalized

     Subspace diagonalization in iterative solution of the eigenvalue problem:
     a serial algorithm will be used


     Parallelization info
     --------------------
     sticks:   dense  smooth     PW     G-vecs:    dense   smooth      PW
     Min         211     142     40                58589    32647    5420
     Max         212     143     41                58614    32689    5479
     Sum         847     571    163               234415   130709   21845



     bravais-lattice index     =            0
     lattice parameter (alat)  =       4.6500  a.u.
     unit-cell volume          =    1044.8904 (a.u.)^3
     number of atoms/cell      =            2
     number of atomic types    =            1
     number of electrons       =         8.00
     number of Kohn-Sham states=            8
     kinetic-energy cutoff     =      95.0000  Ry
     charge density cutoff     =     560.0000  Ry
     convergence threshold     =      1.0E-08
     mixing beta               =       0.7000
     number of iterations used =            8  plain     mixing
     Exchange-correlation      =  SLA  PW   PBE  PBE ( 1 4 3 4 0)
     EXX-fraction              =        0.00

     celldm(1)=   4.650000  celldm(2)=   0.000000  celldm(3)=   0.000000
     celldm(4)=   0.000000  celldm(5)=   0.000000  celldm(6)=   0.000000

     crystal axes: (cart. coord. in units of alat)
               a(1) = (   1.000000   0.000000   0.000000 )  
               a(2) = (   0.500000   0.866025   0.000000 )  
               a(3) = (   0.000000   0.000000  12.000000 )  

     reciprocal axes: (cart. coord. in units 2 pi/alat)
               b(1) = (  1.000000 -0.577350  0.000000 )  
               b(2) = (  0.000000  1.154701  0.000000 )  
               b(3) = (  0.000000  0.000000  0.083333 )  


     PseudoPot. # 1 for C  read from file:
     ./C.pbe-rrkjus.UPF
     MD5 check sum: 00fb224312de0c5b6853bd333518df6f
     Pseudo is Ultrasoft, Zval =  4.0
     Generated by new atomic code, or converted to UPF format
     Using radial grid of  627 points,  4 beta functions with: 
                l(1) =   0
                l(2) =   0
                l(3) =   1
                l(4) =   1
     Q(r) pseudized with 0 coefficients 


     atomic species   valence    mass     pseudopotential
        C              4.00    12.00000     C ( 1.00)

     24 Sym. Ops., with inversion, found (12 have fractional translation)



   Cartesian axes

     site n.     atom                  positions (alat units)
         1           C   tau(   1) = (   0.0000000   0.0000000   0.0000000  )
         2           C   tau(   2) = (   1.0000000   0.5773503   0.0000000  )

     number of k points=    10  gaussian smearing, width (Ry)=  0.0010
                       cart. coord. in units 2pi/alat
        k(    1) = (   0.0000000   0.0000000   0.0000000), wk =   0.0312500
        k(    2) = (   0.0000000   0.1443376   0.0000000), wk =   0.1875000
        k(    3) = (   0.0000000   0.2886751   0.0000000), wk =   0.1875000
        k(    4) = (   0.0000000   0.4330127   0.0000000), wk =   0.1875000
        k(    5) = (   0.0000000  -0.5773503   0.0000000), wk =   0.0937500
        k(    6) = (   0.1250000   0.2165064   0.0000000), wk =   0.1875000
        k(    7) = (   0.1250000   0.3608439   0.0000000), wk =   0.3750000
        k(    8) = (   0.1250000  -0.6495191   0.0000000), wk =   0.3750000
        k(    9) = (   0.2500000  -0.7216878   0.0000000), wk =   0.1875000
        k(   10) = (   0.2500000  -0.5773503   0.0000000), wk =   0.1875000

     Dense  grid:   234415 G-vectors     FFT dimensions: (  36,  36, 432)

     Smooth grid:   130709 G-vectors     FFT dimensions: (  30,  30, 360)

     Largest allocated arrays     est. size (Mb)     dimensions
        Kohn-Sham Wavefunctions         0.51 Mb     (   4178,    8)
        NL pseudopotentials             1.02 Mb     (   4178,   16)
        Each V/rho on FFT grid          2.14 Mb     ( 139968)
        Each G-vector array             0.45 Mb     (  58604)
        G-vector shells                 0.13 Mb     (  17216)
     Largest temporary arrays     est. size (Mb)     dimensions
        Auxiliary wavefunctions         2.04 Mb     (   4178,   32)
        Each subspace H/S matrix        0.02 Mb     (  32,  32)
        Each <psi_i|beta_j> matrix      0.00 Mb     (     16,    8)
        Arrays for rho mixing          17.09 Mb     ( 139968,   8)

     Initial potential from superposition of free atoms

     starting charge    7.99989, renormalised to    8.00000

     negative rho (up, down):  0.254E-04 0.000E+00
     Starting wfc are    8 randomized atomic wfcs

     total cpu time spent up to now is        4.2 secs

     per-process dynamical memory:    37.5 Mb

     Self-consistent Calculation

     iteration #  1     ecut=    95.00 Ry     beta=0.70
     Davidson diagonalization with overlap
     ethr =  1.00E-02,  avg # of iterations =  5.0

     negative rho (up, down):  0.178E-04 0.000E+00

     total cpu time spent up to now is       12.6 secs

     total energy              =     -22.75966943 Ry
     Harris-Foulkes estimate   =     -22.88416394 Ry
     estimated scf accuracy    <       0.20659641 Ry

     iteration #  2     ecut=    95.00 Ry     beta=0.70
     Davidson diagonalization with overlap
     ethr =  2.58E-03,  avg # of iterations =  5.0

     negative rho (up, down):  0.168E-04 0.000E+00

     total cpu time spent up to now is       20.9 secs

     total energy              =     -22.79079689 Ry
     Harris-Foulkes estimate   =     -22.79093016 Ry
     estimated scf accuracy    <       0.00250399 Ry

     iteration #  3     ecut=    95.00 Ry     beta=0.70
     Davidson diagonalization with overlap
     ethr =  3.13E-05,  avg # of iterations =  9.9

     negative rho (up, down):  0.186E-04 0.000E+00

     total cpu time spent up to now is       33.5 secs

     total energy              =     -22.79114512 Ry
     Harris-Foulkes estimate   =     -22.79111451 Ry
     estimated scf accuracy    <       0.00013923 Ry

     iteration #  4     ecut=    95.00 Ry     beta=0.70
     Davidson diagonalization with overlap
     ethr =  1.74E-06,  avg # of iterations =  3.8

     negative rho (up, down):  0.187E-04 0.000E+00

     total cpu time spent up to now is       41.2 secs

     total energy              =     -22.79115055 Ry
     Harris-Foulkes estimate   =     -22.79114973 Ry
     estimated scf accuracy    <       0.00000092 Ry

     iteration #  5     ecut=    95.00 Ry     beta=0.70
     Davidson diagonalization with overlap
     ethr =  1.15E-08,  avg # of iterations =  2.4

     negative rho (up, down):  0.187E-04 0.000E+00

     total cpu time spent up to now is       48.9 secs

     total energy              =     -22.79115089 Ry
     Harris-Foulkes estimate   =     -22.79115088 Ry
     estimated scf accuracy    <       0.00000003 Ry

     iteration #  6     ecut=    95.00 Ry     beta=0.70
     Davidson diagonalization with overlap
     ethr =  3.19E-10,  avg # of iterations =  2.0

     negative rho (up, down):  0.186E-04 0.000E+00

     total cpu time spent up to now is       56.0 secs

     End of self-consistent calculation

          k = 0.0000 0.0000 0.0000 ( 16331 PWs)   bands (ev):

   -22.4901 -10.6005  -6.0233  -6.0233   0.3038   1.0417   1.2089   1.5613

          k = 0.0000 0.1443 0.0000 ( 16389 PWs)   bands (ev):

   -22.1208 -10.1591  -7.3990  -6.7278   0.8069   1.5530   1.7260   2.0757

          k = 0.0000 0.2887 0.0000 ( 16290 PWs)   bands (ev):

   -21.0227 -10.3983  -8.8651  -8.0386   2.3137   3.0723   3.2775   3.6096

          k = 0.0000 0.4330 0.0000 ( 16368 PWs)   bands (ev):

   -19.2331 -13.6750  -9.0473  -6.8771   0.8547   4.6117   4.8975   5.6367

          k = 0.0000-0.5774 0.0000 ( 16340 PWs)   bands (ev):

   -17.2281 -16.2194  -9.4102  -5.3177  -1.2657   4.5030   8.1872   8.3404

          k = 0.1250 0.2165 0.0000 ( 16327 PWs)   bands (ev):

   -21.3872  -9.2898  -9.1951  -8.1332   1.8134   2.5729   2.7604   3.1037

          k = 0.1250 0.3608 0.0000 ( 16292 PWs)   bands (ev):

   -19.9424 -11.9806  -9.6509  -7.6230   2.2693   3.8174   4.6047   4.8289

          k = 0.1250-0.6495 0.0000 ( 16357 PWs)   bands (ev):

   -17.8707 -14.9825 -10.4179  -5.5231  -0.7077   6.0654   6.8066   7.5594

          k = 0.2500-0.7217 0.0000 ( 16385 PWs)   bands (ev):

   -18.1997 -13.4894 -11.9484  -5.6981  -0.1209   6.2910   6.9524   7.4141

          k = 0.2500-0.5774 0.0000 ( 16381 PWs)   bands (ev):

   -16.2826 -15.4208 -12.7301  -3.9746  -1.9962   7.9930   9.1957   9.3689

     the Fermi energy is    -2.5714 ev

!    total energy              =     -22.79115089 Ry
     Harris-Foulkes estimate   =     -22.79115089 Ry
     estimated scf accuracy    <          6.7E-10 Ry

     The total energy is the sum of the following terms:

     one-electron contribution =    -353.76175917 Ry
     hartree contribution      =     177.89105745 Ry
     xc contribution           =      -7.02469061 Ry
     ewald contribution        =     160.10424143 Ry
     smearing contrib. (-TS)   =      -0.00000000 Ry

     convergence has been achieved in   6 iterations

     Writing output data file graphene.save

     init_run     :      3.94s CPU      4.14s WALL (       1 calls)
     electrons    :     48.66s CPU     51.80s WALL (       1 calls)

     Called by init_run:
     wfcinit      :      1.62s CPU      1.67s WALL (       1 calls)
     potinit      :      1.04s CPU      1.11s WALL (       1 calls)

     Called by electrons:
     c_bands      :     33.86s CPU     35.75s WALL (       6 calls)
     sum_band     :      8.73s CPU      9.47s WALL (       6 calls)
     v_of_rho     :      2.59s CPU      2.82s WALL (       7 calls)
     newd         :      2.96s CPU      3.12s WALL (       7 calls)
     mix_rho      :      0.45s CPU      0.48s WALL (       6 calls)

     Called by c_bands:
     init_us_2    :      0.39s CPU      0.46s WALL (     130 calls)
     cegterg      :     33.26s CPU     35.06s WALL (      60 calls)

     Called by *egterg:
     h_psi        :     31.62s CPU     33.33s WALL (     351 calls)
     s_psi        :      0.42s CPU      0.42s WALL (     351 calls)
     g_psi        :      0.16s CPU      0.16s WALL (     281 calls)
     cdiaghg      :      0.15s CPU      0.15s WALL (     341 calls)

     Called by h_psi:
     add_vuspsi   :      0.41s CPU      0.42s WALL (     351 calls)

     General routines
     calbec       :      0.59s CPU      0.63s WALL (     411 calls)
     fft          :      2.45s CPU      2.70s WALL (     107 calls)
     ffts         :      0.16s CPU      0.17s WALL (      13 calls)
     fftw         :     29.25s CPU     31.16s WALL (    3630 calls)
     interpolate  :      0.53s CPU      0.55s WALL (      13 calls)
     davcio       :      0.12s CPU      0.17s WALL (     190 calls)

     Parallel routines
     fft_scatter  :     12.18s CPU     14.14s WALL (    3750 calls)

     PWSCF        :    52.89s CPU        56.25s WALL


   This run was terminated on:   3:36:12  26Jul2015            

=------------------------------------------------------------------------------=
   JOB DONE.
=------------------------------------------------------------------------------=
