
     Program PWSCF v.5.0.2 (svn rev. 9656) starts on 26Jul2015 at  2: 9:31 

     This program is part of the open-source Quantum ESPRESSO suite
     for quantum simulation of materials; please cite
         "P. Giannozzi et al., J. Phys.:Condens. Matter 21 395502 (2009);
          URL http://www.quantum-espresso.org", 
     in publications or presentations arising from this work. More details at
     http://www.quantum-espresso.org/quote.php

     Parallel version (MPI), running on     4 processors
     R & G space division:  proc/nbgrp/npool/nimage =       4

     Current dimensions of program PWSCF are:
     Max number of different atomic species (ntypx) = 10
     Max number of k-points (npk) =  40000
     Max angular momentum in pseudopotentials (lmaxx) =  3
     Waiting for input...
     Reading input from standard input
               file C.pbe-rrkjus.UPF: wavefunction(s)  2S 2P renormalized

     Subspace diagonalization in iterative solution of the eigenvalue problem:
     a serial algorithm will be used


     Parallelization info
     --------------------
     sticks:   dense  smooth     PW     G-vecs:    dense   smooth      PW
     Min         211      78     27                58589    14254    2657
     Max         212      79     28                58614    14321    2684
     Sum         847     313    109               234415    57119   10663



     bravais-lattice index     =            0
     lattice parameter (alat)  =       4.6500  a.u.
     unit-cell volume          =    1044.8904 (a.u.)^3
     number of atoms/cell      =            2
     number of atomic types    =            1
     number of electrons       =         8.00
     number of Kohn-Sham states=            8
     kinetic-energy cutoff     =      55.0000  Ry
     charge density cutoff     =     560.0000  Ry
     convergence threshold     =      1.0E-08
     mixing beta               =       0.7000
     number of iterations used =            8  plain     mixing
     Exchange-correlation      =  SLA  PW   PBE  PBE ( 1 4 3 4 0)
     EXX-fraction              =        0.00

     celldm(1)=   4.650000  celldm(2)=   0.000000  celldm(3)=   0.000000
     celldm(4)=   0.000000  celldm(5)=   0.000000  celldm(6)=   0.000000

     crystal axes: (cart. coord. in units of alat)
               a(1) = (   1.000000   0.000000   0.000000 )  
               a(2) = (   0.500000   0.866025   0.000000 )  
               a(3) = (   0.000000   0.000000  12.000000 )  

     reciprocal axes: (cart. coord. in units 2 pi/alat)
               b(1) = (  1.000000 -0.577350  0.000000 )  
               b(2) = (  0.000000  1.154701  0.000000 )  
               b(3) = (  0.000000  0.000000  0.083333 )  


     PseudoPot. # 1 for C  read from file:
     ./C.pbe-rrkjus.UPF
     MD5 check sum: 00fb224312de0c5b6853bd333518df6f
     Pseudo is Ultrasoft, Zval =  4.0
     Generated by new atomic code, or converted to UPF format
     Using radial grid of  627 points,  4 beta functions with: 
                l(1) =   0
                l(2) =   0
                l(3) =   1
                l(4) =   1
     Q(r) pseudized with 0 coefficients 


     atomic species   valence    mass     pseudopotential
        C              4.00    12.00000     C ( 1.00)

     24 Sym. Ops., with inversion, found (12 have fractional translation)



   Cartesian axes

     site n.     atom                  positions (alat units)
         1           C   tau(   1) = (   0.0000000   0.0000000   0.0000000  )
         2           C   tau(   2) = (   1.0000000   0.5773503   0.0000000  )

     number of k points=    19  gaussian smearing, width (Ry)=  0.0010
                       cart. coord. in units 2pi/alat
        k(    1) = (   0.0000000   0.0000000   0.0000000), wk =   0.0138889
        k(    2) = (   0.0000000   0.0962250   0.0000000), wk =   0.0833333
        k(    3) = (   0.0000000   0.1924501   0.0000000), wk =   0.0833333
        k(    4) = (   0.0000000   0.2886751   0.0000000), wk =   0.0833333
        k(    5) = (   0.0000000   0.3849002   0.0000000), wk =   0.0833333
        k(    6) = (   0.0000000   0.4811252   0.0000000), wk =   0.0833333
        k(    7) = (   0.0000000  -0.5773503   0.0000000), wk =   0.0416667
        k(    8) = (   0.0833333   0.1443376   0.0000000), wk =   0.0833333
        k(    9) = (   0.0833333   0.2405626   0.0000000), wk =   0.1666667
        k(   10) = (   0.0833333   0.3367877   0.0000000), wk =   0.1666667
        k(   11) = (   0.0833333   0.4330127   0.0000000), wk =   0.1666667
        k(   12) = (   0.0833333  -0.6254628   0.0000000), wk =   0.1666667
        k(   13) = (   0.1666667   0.2886751   0.0000000), wk =   0.0833333
        k(   14) = (   0.1666667   0.3849002   0.0000000), wk =   0.1666667
        k(   15) = (   0.1666667  -0.6735753   0.0000000), wk =   0.1666667
        k(   16) = (   0.1666667  -0.5773503   0.0000000), wk =   0.0833333
        k(   17) = (   0.2500000  -0.7216878   0.0000000), wk =   0.0833333
        k(   18) = (   0.2500000  -0.6254628   0.0000000), wk =   0.1666667
        k(   19) = (   0.3333333  -0.5773503   0.0000000), wk =   0.0277778

     Dense  grid:   234415 G-vectors     FFT dimensions: (  36,  36, 432)

     Smooth grid:    57119 G-vectors     FFT dimensions: (  24,  24, 270)

     Largest allocated arrays     est. size (Mb)     dimensions
        Kohn-Sham Wavefunctions         0.22 Mb     (   1830,    8)
        NL pseudopotentials             0.45 Mb     (   1830,   16)
        Each V/rho on FFT grid          2.14 Mb     ( 139968)
        Each G-vector array             0.45 Mb     (  58604)
        G-vector shells                 0.13 Mb     (  17415)
     Largest temporary arrays     est. size (Mb)     dimensions
        Auxiliary wavefunctions         0.89 Mb     (   1830,   32)
        Each subspace H/S matrix        0.02 Mb     (  32,  32)
        Each <psi_i|beta_j> matrix      0.00 Mb     (     16,    8)
        Arrays for rho mixing          17.09 Mb     ( 139968,   8)

     Initial potential from superposition of free atoms

     starting charge    7.99989, renormalised to    8.00000

     negative rho (up, down):  0.254E-04 0.000E+00
     Starting wfc are    8 randomized atomic wfcs

     total cpu time spent up to now is        3.2 secs

     per-process dynamical memory:    36.4 Mb

     Self-consistent Calculation

     iteration #  1     ecut=    55.00 Ry     beta=0.70
     Davidson diagonalization with overlap
     ethr =  1.00E-02,  avg # of iterations =  5.1

     negative rho (up, down):  0.174E-04 0.000E+00

     total cpu time spent up to now is        8.6 secs

     total energy              =     -22.75901717 Ry
     Harris-Foulkes estimate   =     -22.88351833 Ry
     estimated scf accuracy    <       0.20663264 Ry

     iteration #  2     ecut=    55.00 Ry     beta=0.70
     Davidson diagonalization with overlap
     ethr =  2.58E-03,  avg # of iterations =  3.7

     negative rho (up, down):  0.169E-04 0.000E+00

     total cpu time spent up to now is       12.8 secs

     total energy              =     -22.79017302 Ry
     Harris-Foulkes estimate   =     -22.79030887 Ry
     estimated scf accuracy    <       0.00251629 Ry

     iteration #  3     ecut=    55.00 Ry     beta=0.70
     Davidson diagonalization with overlap
     ethr =  3.15E-05,  avg # of iterations = 10.9

     negative rho (up, down):  0.186E-04 0.000E+00

     total cpu time spent up to now is       19.5 secs

     total energy              =     -22.79053739 Ry
     Harris-Foulkes estimate   =     -22.79050740 Ry
     estimated scf accuracy    <       0.00013732 Ry

     iteration #  4     ecut=    55.00 Ry     beta=0.70
     Davidson diagonalization with overlap
     ethr =  1.72E-06,  avg # of iterations =  4.5

     negative rho (up, down):  0.187E-04 0.000E+00

     total cpu time spent up to now is       23.7 secs

     total energy              =     -22.79054286 Ry
     Harris-Foulkes estimate   =     -22.79054203 Ry
     estimated scf accuracy    <       0.00000096 Ry

     iteration #  5     ecut=    55.00 Ry     beta=0.70
     Davidson diagonalization with overlap
     ethr =  1.20E-08,  avg # of iterations =  2.5

     negative rho (up, down):  0.187E-04 0.000E+00

     total cpu time spent up to now is       27.8 secs

     total energy              =     -22.79054317 Ry
     Harris-Foulkes estimate   =     -22.79054316 Ry
     estimated scf accuracy    <       0.00000003 Ry

     iteration #  6     ecut=    55.00 Ry     beta=0.70
     Davidson diagonalization with overlap
     ethr =  3.16E-10,  avg # of iterations =  2.0

     negative rho (up, down):  0.186E-04 0.000E+00

     total cpu time spent up to now is       31.5 secs

     End of self-consistent calculation

          k = 0.0000 0.0000 0.0000 (  7331 PWs)   bands (ev):

   -22.4915 -10.6017  -6.0245  -6.0245   0.3036   1.0417   1.2090   1.5613

          k = 0.0000 0.0962 0.0000 (  7329 PWs)   bands (ev):

   -22.3272 -10.4050  -6.6721  -6.3638   0.5271   1.2690   1.4389   1.7900

          k = 0.0000 0.1925 0.0000 (  7277 PWs)   bands (ev):

   -21.8361  -9.8201  -8.3046  -7.1581   1.1978   1.9499   2.1284   2.4755

          k = 0.0000 0.2887 0.0000 (  7220 PWs)   bands (ev):

   -21.0241 -10.3996  -8.8663  -8.0398   2.3134   3.0722   3.2776   3.6097

          k = 0.0000 0.3849 0.0000 (  7196 PWs)   bands (ev):

   -19.9032 -12.6021  -8.7748  -7.5940   1.9771   3.8614   4.6831   4.8231

          k = 0.0000 0.4811 0.0000 (  7150 PWs)   bands (ev):

   -18.5039 -14.7042  -9.2487  -6.1666  -0.1652   4.5771   5.8802   6.6989

          k = 0.0000-0.5774 0.0000 (  7076 PWs)   bands (ev):

   -17.2295 -16.2208  -9.4114  -5.3189  -1.2669   4.5018   8.1871   8.3399

          k = 0.0833 0.1443 0.0000 (  7289 PWs)   bands (ev):

   -21.9995 -10.0141  -7.7018  -7.0425   0.9745   1.7232   1.8986   2.2471

          k = 0.0833 0.2406 0.0000 (  7222 PWs)   bands (ev):

   -21.3480  -9.4074  -9.2435  -8.0420   1.8686   2.6288   2.8179   3.1602

          k = 0.0833 0.3368 0.0000 (  7209 PWs)   bands (ev):

   -20.3814 -11.4787  -8.9292  -8.1240   2.9922   3.2050   4.0036   4.1970

          k = 0.0833 0.4330 0.0000 (  7173 PWs)   bands (ev):

   -19.1184 -13.6022  -9.5648  -6.7399   0.7854   4.9543   5.4310   5.7904

          k = 0.0833-0.6255 0.0000 (  7121 PWs)   bands (ev):

   -17.6333 -15.5483  -9.8936  -5.4262  -0.9894   5.2357   7.1805   7.9839

          k = 0.1667 0.2887 0.0000 (  7197 PWs)   bands (ev):

   -20.5419 -10.7333  -9.4059  -8.3034   2.9846   3.4512   3.7557   3.9672

          k = 0.1667 0.3849 0.0000 (  7209 PWs)   bands (ev):

   -19.4319 -12.4602 -10.4619  -7.0463   1.4972   4.5376   5.3148   5.5760

          k = 0.1667-0.6736 0.0000 (  7164 PWs)   bands (ev):

   -18.0526 -14.3739 -11.0368  -5.6149  -0.4213   6.4990   7.1430   7.2353

          k = 0.1667-0.5774 0.0000 (  7162 PWs)   bands (ev):

   -16.8087 -15.8183 -11.2213  -4.7190  -1.4932   7.0364   8.6864   8.7476

          k = 0.2500-0.7217 0.0000 (  7183 PWs)   bands (ev):

   -18.2011 -13.4908 -11.9497  -5.6993  -0.1221   6.2907   6.9520   7.4143

          k = 0.2500-0.6255 0.0000 (  7184 PWs)   bands (ev):

   -16.7740 -14.9164 -12.6564  -4.3090  -1.6471   7.9507   8.3872   9.2935

          k = 0.3333-0.5774 0.0000 (  7188 PWs)   bands (ev):

   -15.5524 -15.5524 -13.5626  -2.9488  -2.9488   7.6898   9.9571   9.9571

     the Fermi energy is    -2.9488 ev

!    total energy              =     -22.79054318 Ry
     Harris-Foulkes estimate   =     -22.79054318 Ry
     estimated scf accuracy    <          6.5E-10 Ry

     The total energy is the sum of the following terms:

     one-electron contribution =    -353.76018394 Ry
     hartree contribution      =     177.89011968 Ry
     xc contribution           =      -7.02470467 Ry
     ewald contribution        =     160.10424143 Ry
     smearing contrib. (-TS)   =      -0.00001567 Ry

     convergence has been achieved in   6 iterations

     Writing output data file graphene.save

     init_run     :      3.04s CPU      3.17s WALL (       1 calls)
     electrons    :     27.45s CPU     28.26s WALL (       1 calls)

     Called by init_run:
     wfcinit      :      1.03s CPU      1.06s WALL (       1 calls)
     potinit      :      0.91s CPU      0.93s WALL (       1 calls)

     Called by electrons:
     c_bands      :     18.55s CPU     18.99s WALL (       6 calls)
     sum_band     :      5.24s CPU      5.41s WALL (       6 calls)
     v_of_rho     :      1.75s CPU      1.87s WALL (       7 calls)
     newd         :      1.74s CPU      1.80s WALL (       7 calls)
     mix_rho      :      0.24s CPU      0.24s WALL (       6 calls)

     Called by c_bands:
     init_us_2    :      0.34s CPU      0.36s WALL (     247 calls)
     cegterg      :     18.13s CPU     18.53s WALL (     114 calls)

     Called by *egterg:
     h_psi        :     17.01s CPU     17.40s WALL (     679 calls)
     s_psi        :      0.23s CPU      0.22s WALL (     679 calls)
     g_psi        :      0.11s CPU      0.12s WALL (     546 calls)
     cdiaghg      :      0.24s CPU      0.24s WALL (     660 calls)

     Called by h_psi:
     add_vuspsi   :      0.24s CPU      0.25s WALL (     679 calls)

     General routines
     calbec       :      0.46s CPU      0.46s WALL (     793 calls)
     fft          :      1.63s CPU      1.74s WALL (     107 calls)
     ffts         :      0.05s CPU      0.05s WALL (      13 calls)
     fftw         :     12.74s CPU     13.07s WALL (    6900 calls)
     interpolate  :      0.30s CPU      0.31s WALL (      13 calls)
     davcio       :      0.07s CPU      0.08s WALL (     361 calls)

     Parallel routines
     fft_scatter  :      6.20s CPU      6.49s WALL (    7020 calls)

     PWSCF        :    30.72s CPU        31.70s WALL


   This run was terminated on:   2:10: 2  26Jul2015            

=------------------------------------------------------------------------------=
   JOB DONE.
=------------------------------------------------------------------------------=
