
     Program PWSCF v.5.0.2 (svn rev. 9656) starts on 26Jul2015 at  1:28:49 

     This program is part of the open-source Quantum ESPRESSO suite
     for quantum simulation of materials; please cite
         "P. Giannozzi et al., J. Phys.:Condens. Matter 21 395502 (2009);
          URL http://www.quantum-espresso.org", 
     in publications or presentations arising from this work. More details at
     http://www.quantum-espresso.org/quote.php

     Parallel version (MPI), running on     4 processors
     R & G space division:  proc/nbgrp/npool/nimage =       4

     Current dimensions of program PWSCF are:
     Max number of different atomic species (ntypx) = 10
     Max number of k-points (npk) =  40000
     Max angular momentum in pseudopotentials (lmaxx) =  3
     Waiting for input...
     Reading input from standard input
               file C.pbe-rrkjus.UPF: wavefunction(s)  2S 2P renormalized

     Subspace diagonalization in iterative solution of the eigenvalue problem:
     a serial algorithm will be used


     Parallelization info
     --------------------
     sticks:   dense  smooth     PW     G-vecs:    dense   smooth      PW
     Min         205     105     30                56616    20041    3456
     Max         207     106     31                56625    20110    3509
     Sum         823     421    121               226477    80251   13893



     bravais-lattice index     =            0
     lattice parameter (alat)  =       4.6000  a.u.
     unit-cell volume          =    1011.5454 (a.u.)^3
     number of atoms/cell      =            2
     number of atomic types    =            1
     number of electrons       =         8.00
     number of Kohn-Sham states=            8
     kinetic-energy cutoff     =      70.0000  Ry
     charge density cutoff     =     560.0000  Ry
     convergence threshold     =      1.0E-08
     mixing beta               =       0.7000
     number of iterations used =            8  plain     mixing
     Exchange-correlation      =  SLA  PW   PBE  PBE ( 1 4 3 4 0)
     EXX-fraction              =        0.00

     celldm(1)=   4.600000  celldm(2)=   0.000000  celldm(3)=   0.000000
     celldm(4)=   0.000000  celldm(5)=   0.000000  celldm(6)=   0.000000

     crystal axes: (cart. coord. in units of alat)
               a(1) = (   1.000000   0.000000   0.000000 )  
               a(2) = (   0.500000   0.866025   0.000000 )  
               a(3) = (   0.000000   0.000000  12.000000 )  

     reciprocal axes: (cart. coord. in units 2 pi/alat)
               b(1) = (  1.000000 -0.577350  0.000000 )  
               b(2) = (  0.000000  1.154701  0.000000 )  
               b(3) = (  0.000000  0.000000  0.083333 )  


     PseudoPot. # 1 for C  read from file:
     ./C.pbe-rrkjus.UPF
     MD5 check sum: 00fb224312de0c5b6853bd333518df6f
     Pseudo is Ultrasoft, Zval =  4.0
     Generated by new atomic code, or converted to UPF format
     Using radial grid of  627 points,  4 beta functions with: 
                l(1) =   0
                l(2) =   0
                l(3) =   1
                l(4) =   1
     Q(r) pseudized with 0 coefficients 


     atomic species   valence    mass     pseudopotential
        C              4.00    12.00000     C ( 1.00)

     24 Sym. Ops., with inversion, found (12 have fractional translation)



   Cartesian axes

     site n.     atom                  positions (alat units)
         1           C   tau(   1) = (   0.0000000   0.0000000   0.0000000  )
         2           C   tau(   2) = (   1.0000000   0.5773503   0.0000000  )

     number of k points=    14  gaussian smearing, width (Ry)=  0.0010
                       cart. coord. in units 2pi/alat
        k(    1) = (   0.0000000   0.0000000   0.0000000), wk =   0.0200000
        k(    2) = (   0.0000000   0.1154701   0.0000000), wk =   0.1200000
        k(    3) = (   0.0000000   0.2309401   0.0000000), wk =   0.1200000
        k(    4) = (   0.0000000   0.3464102   0.0000000), wk =   0.1200000
        k(    5) = (   0.0000000   0.4618802   0.0000000), wk =   0.1200000
        k(    6) = (   0.0000000  -0.5773503   0.0000000), wk =   0.0600000
        k(    7) = (   0.1000000   0.1732051   0.0000000), wk =   0.1200000
        k(    8) = (   0.1000000   0.2886751   0.0000000), wk =   0.2400000
        k(    9) = (   0.1000000   0.4041452   0.0000000), wk =   0.2400000
        k(   10) = (   0.1000000  -0.6350853   0.0000000), wk =   0.2400000
        k(   11) = (   0.2000000   0.3464102   0.0000000), wk =   0.1200000
        k(   12) = (   0.2000000  -0.6928203   0.0000000), wk =   0.2400000
        k(   13) = (   0.2000000  -0.5773503   0.0000000), wk =   0.1200000
        k(   14) = (   0.3000000  -0.6350853   0.0000000), wk =   0.1200000

     Dense  grid:   226477 G-vectors     FFT dimensions: (  36,  36, 432)

     Smooth grid:    80251 G-vectors     FFT dimensions: (  25,  25, 300)

     Largest allocated arrays     est. size (Mb)     dimensions
        Kohn-Sham Wavefunctions         0.31 Mb     (   2542,    8)
        NL pseudopotentials             0.62 Mb     (   2542,   16)
        Each V/rho on FFT grid          2.14 Mb     ( 139968)
        Each G-vector array             0.43 Mb     (  56625)
        G-vector shells                 0.13 Mb     (  16671)
     Largest temporary arrays     est. size (Mb)     dimensions
        Auxiliary wavefunctions         1.24 Mb     (   2542,   32)
        Each subspace H/S matrix        0.02 Mb     (  32,  32)
        Each <psi_i|beta_j> matrix      0.00 Mb     (     16,    8)
        Arrays for rho mixing          17.09 Mb     ( 139968,   8)

     Initial potential from superposition of free atoms

     starting charge    7.99989, renormalised to    8.00000

     negative rho (up, down):  0.243E-04 0.000E+00
     Starting wfc are    8 randomized atomic wfcs

     total cpu time spent up to now is        3.1 secs

     per-process dynamical memory:    36.7 Mb

     Self-consistent Calculation

     iteration #  1     ecut=    70.00 Ry     beta=0.70
     Davidson diagonalization with overlap
     ethr =  1.00E-02,  avg # of iterations =  5.5

     negative rho (up, down):  0.170E-04 0.000E+00

     total cpu time spent up to now is        8.7 secs

     total energy              =     -22.75542084 Ry
     Harris-Foulkes estimate   =     -22.89262806 Ry
     estimated scf accuracy    <       0.22545545 Ry

     iteration #  2     ecut=    70.00 Ry     beta=0.70
     Davidson diagonalization with overlap
     ethr =  2.82E-03,  avg # of iterations =  4.1

     negative rho (up, down):  0.165E-04 0.000E+00

     total cpu time spent up to now is       13.3 secs

     total energy              =     -22.78971752 Ry
     Harris-Foulkes estimate   =     -22.78986355 Ry
     estimated scf accuracy    <       0.00259472 Ry

     iteration #  3     ecut=    70.00 Ry     beta=0.70
     Davidson diagonalization with overlap
     ethr =  3.24E-05,  avg # of iterations = 10.9

     negative rho (up, down):  0.184E-04 0.000E+00

     total cpu time spent up to now is       20.4 secs

     total energy              =     -22.79011775 Ry
     Harris-Foulkes estimate   =     -22.79008475 Ry
     estimated scf accuracy    <       0.00013790 Ry

     iteration #  4     ecut=    70.00 Ry     beta=0.70
     Davidson diagonalization with overlap
     ethr =  1.72E-06,  avg # of iterations =  3.9

     negative rho (up, down):  0.187E-04 0.000E+00

     total cpu time spent up to now is       24.9 secs

     total energy              =     -22.79012365 Ry
     Harris-Foulkes estimate   =     -22.79012272 Ry
     estimated scf accuracy    <       0.00000109 Ry

     iteration #  5     ecut=    70.00 Ry     beta=0.70
     Davidson diagonalization with overlap
     ethr =  1.37E-08,  avg # of iterations =  2.5

     negative rho (up, down):  0.186E-04 0.000E+00

     total cpu time spent up to now is       29.4 secs

     total energy              =     -22.79012403 Ry
     Harris-Foulkes estimate   =     -22.79012402 Ry
     estimated scf accuracy    <       0.00000002 Ry

     iteration #  6     ecut=    70.00 Ry     beta=0.70
     Davidson diagonalization with overlap
     ethr =  3.07E-10,  avg # of iterations =  2.0

     negative rho (up, down):  0.186E-04 0.000E+00

     total cpu time spent up to now is       33.4 secs

     End of self-consistent calculation

          k = 0.0000 0.0000 0.0000 (  9951 PWs)   bands (ev):

   -22.6278 -10.6971  -5.8873  -5.8873   0.3285   1.0729   1.2406   1.6025

          k = 0.0000 0.1155 0.0000 (  9951 PWs)   bands (ev):

   -22.3868 -10.4066  -6.8121  -6.3780   0.6574   1.4075   1.5788   1.9390

          k = 0.0000 0.2309 0.0000 (  9967 PWs)   bands (ev):

   -21.6676  -9.5464  -9.0192  -7.4283   1.6436   2.4087   2.5934   2.9472

          k = 0.0000 0.3464 0.0000 ( 10005 PWs)   bands (ev):

   -20.4827 -11.6770  -8.4483  -8.1632   3.1765   3.2809   4.1131   4.2841

          k = 0.0000 0.4619 0.0000 ( 10024 PWs)   bands (ev):

   -18.8633 -14.3049  -9.1375  -6.4233   0.4180   5.0334   5.6089   6.4117

          k = 0.0000-0.5774 0.0000 ( 10064 PWs)   bands (ev):

   -17.2161 -16.3056  -9.3775  -5.2575  -1.1270   4.9504   8.3907   8.5412

          k = 0.1000 0.1732 0.0000 (  9966 PWs)   bands (ev):

   -21.9067  -9.8309  -8.1716  -7.3575   1.3155   2.0758   2.2552   2.6116

          k = 0.1000 0.2887 0.0000 (  9949 PWs)   bands (ev):

   -20.9547 -10.3629  -8.7048  -8.6365   2.6298   3.4017   3.6080   3.9491

          k = 0.1000 0.4041 0.0000 (  9997 PWs)   bands (ev):

   -19.5513 -12.9209  -9.5755  -7.1107   1.6346   4.5875   5.4041   5.6367

          k = 0.1000-0.6351 0.0000 ( 10009 PWs)   bands (ev):

   -17.7650 -15.3623 -10.0635  -5.4108  -0.7215   5.9970   7.1924   7.9924

          k = 0.2000 0.3464 0.0000 (  9986 PWs)   bands (ev):

   -19.7839 -11.8372 -10.4536  -7.3507   2.2394   4.2668   5.0502   5.2991

          k = 0.2000-0.6928 0.0000 ( 10036 PWs)   bands (ev):

   -18.1944 -13.8779 -11.5413  -5.6236  -0.0385   6.5277   7.2306   7.6658

          k = 0.2000-0.5774 0.0000 ( 10066 PWs)   bands (ev):

   -16.6047 -15.7125 -11.8457  -4.3720  -1.4956   8.4160   8.6218   9.2117

          k = 0.3000-0.6351 0.0000 ( 10072 PWs)   bands (ev):

   -16.5156 -14.7843 -13.2599  -3.8827  -1.7798   7.9886   8.9777  10.5545

     the Fermi energy is    -1.8821 ev

!    total energy              =     -22.79012403 Ry
     Harris-Foulkes estimate   =     -22.79012403 Ry
     estimated scf accuracy    <          5.8E-10 Ry

     The total energy is the sum of the following terms:

     one-electron contribution =    -357.20776306 Ry
     hartree contribution      =     179.64469412 Ry
     xc contribution           =      -7.07156002 Ry
     ewald contribution        =     161.84450492 Ry
     smearing contrib. (-TS)   =      -0.00000000 Ry

     convergence has been achieved in   6 iterations

     Writing output data file graphene.save

     init_run     :      2.85s CPU      3.04s WALL (       1 calls)
     electrons    :     28.79s CPU     30.29s WALL (       1 calls)

     Called by init_run:
     wfcinit      :      0.91s CPU      0.97s WALL (       1 calls)
     potinit      :      0.89s CPU      0.94s WALL (       1 calls)

     Called by electrons:
     c_bands      :     18.94s CPU     19.69s WALL (       6 calls)
     sum_band     :      5.72s CPU      6.11s WALL (       6 calls)
     v_of_rho     :      1.97s CPU      2.13s WALL (       7 calls)
     newd         :      1.92s CPU      2.07s WALL (       7 calls)
     mix_rho      :      0.30s CPU      0.31s WALL (       6 calls)

     Called by c_bands:
     init_us_2    :      0.29s CPU      0.33s WALL (     182 calls)
     cegterg      :     18.54s CPU     19.24s WALL (      84 calls)

     Called by *egterg:
     h_psi        :     17.20s CPU     17.87s WALL (     502 calls)
     s_psi        :      0.26s CPU      0.27s WALL (     502 calls)
     g_psi        :      0.10s CPU      0.11s WALL (     404 calls)
     cdiaghg      :      0.20s CPU      0.20s WALL (     488 calls)

     Called by h_psi:
     add_vuspsi   :      0.25s CPU      0.26s WALL (     502 calls)

     General routines
     calbec       :      0.48s CPU      0.49s WALL (     586 calls)
     fft          :      1.89s CPU      2.05s WALL (     107 calls)
     ffts         :      0.06s CPU      0.06s WALL (      13 calls)
     fftw         :     12.21s CPU     12.93s WALL (    5092 calls)
     interpolate  :      0.36s CPU      0.37s WALL (      13 calls)
     davcio       :      0.08s CPU      0.09s WALL (     266 calls)

     Parallel routines
     fft_scatter  :      7.76s CPU      8.38s WALL (    5212 calls)

     PWSCF        :    31.87s CPU        33.59s WALL


   This run was terminated on:   1:29:23  26Jul2015            

=------------------------------------------------------------------------------=
   JOB DONE.
=------------------------------------------------------------------------------=
