
     Program PWSCF v.5.0.2 (svn rev. 9656) starts on 27Feb2016 at 19:15:46 

     This program is part of the open-source Quantum ESPRESSO suite
     for quantum simulation of materials; please cite
         "P. Giannozzi et al., J. Phys.:Condens. Matter 21 395502 (2009);
          URL http://www.quantum-espresso.org", 
     in publications or presentations arising from this work. More details at
     http://www.quantum-espresso.org/quote.php

     Parallel version (MPI), running on     4 processors
     R & G space division:  proc/nbgrp/npool/nimage =       4

     Current dimensions of program PWSCF are:
     Max number of different atomic species (ntypx) = 10
     Max number of k-points (npk) =  40000
     Max angular momentum in pseudopotentials (lmaxx) =  3
     Waiting for input...
     Reading input from standard input
               file Cu.pbe.UPF: wavefunction(s)  4S 3D renormalized

     Subspace diagonalization in iterative solution of the eigenvalue problem:
     a serial algorithm will be used


     Parallelization info
     --------------------
     sticks:   dense  smooth     PW     G-vecs:    dense   smooth      PW
     Min         222     222     66                 4393     4393     722
     Max         223     223     67                 4394     4394     724
     Sum         889     889    265                17573    17573    2891



     bravais-lattice index     =            2
     lattice parameter (alat)  =      10.4000  a.u.
     unit-cell volume          =     281.2160 (a.u.)^3
     number of atoms/cell      =            2
     number of atomic types    =            1
     number of electrons       =        22.00
     number of Kohn-Sham states=           15
     kinetic-energy cutoff     =      60.0000  Ry
     charge density cutoff     =     240.0000  Ry
     convergence threshold     =      1.0E-07
     mixing beta               =       0.7000
     number of iterations used =            8  plain     mixing
     Exchange-correlation      =  SLA  PW   PBX  PBC ( 1 4 3 4 0)
     EXX-fraction              =        0.00

     celldm(1)=  10.400000  celldm(2)=   0.000000  celldm(3)=   0.000000
     celldm(4)=   0.000000  celldm(5)=   0.000000  celldm(6)=   0.000000

     crystal axes: (cart. coord. in units of alat)
               a(1) = (  -0.500000   0.000000   0.500000 )  
               a(2) = (   0.000000   0.500000   0.500000 )  
               a(3) = (  -0.500000   0.500000   0.000000 )  

     reciprocal axes: (cart. coord. in units 2 pi/alat)
               b(1) = ( -1.000000 -1.000000  1.000000 )  
               b(2) = (  1.000000  1.000000  1.000000 )  
               b(3) = ( -1.000000  1.000000 -1.000000 )  


     PseudoPot. # 1 for Cu read from file:
     ./Cu.pbe.UPF
     MD5 check sum: 0c51aa2b3b25e0d1c3270f17c0a46a12
     Pseudo is Projector augmented-wave + core cor, Zval = 11.0
     Generated using "atomic" code by A. Dal Corso  v.5.0.99 svn rev. 10869
     Shape of augmentation charge: BESSEL
     Using radial grid of 1199 points,  6 beta functions with: 
                l(1) =   0
                l(2) =   0
                l(3) =   1
                l(4) =   1
                l(5) =   2
                l(6) =   2
     Q(r) pseudized with 0 coefficients 


     atomic species   valence    mass     pseudopotential
        Cu            11.00    63.54600     Cu( 1.00)

     48 Sym. Ops., with inversion, found (24 have fractional translation)



   Cartesian axes

     site n.     atom                  positions (alat units)
         1           Cu  tau(   1) = (   0.0000000   0.0000000   0.0000000  )
         2           Cu  tau(   2) = (   0.2500000   0.2500000   0.2500000  )

     number of k points=    35  gaussian smearing, width (Ry)=  0.0030
                       cart. coord. in units 2pi/alat
        k(    1) = (   0.0000000   0.0000000   0.0000000), wk =   0.0027435
        k(    2) = (  -0.1111111   0.1111111  -0.1111111), wk =   0.0219479
        k(    3) = (  -0.2222222   0.2222222  -0.2222222), wk =   0.0219479
        k(    4) = (  -0.3333333   0.3333333  -0.3333333), wk =   0.0219479
        k(    5) = (  -0.4444444   0.4444444  -0.4444444), wk =   0.0219479
        k(    6) = (   0.0000000   0.2222222   0.0000000), wk =   0.0164609
        k(    7) = (  -0.1111111   0.3333333  -0.1111111), wk =   0.0658436
        k(    8) = (  -0.2222222   0.4444444  -0.2222222), wk =   0.0658436
        k(    9) = (  -0.3333333   0.5555556  -0.3333333), wk =   0.0658436
        k(   10) = (   0.5555556  -0.3333333   0.5555556), wk =   0.0658436
        k(   11) = (   0.4444444  -0.2222222   0.4444444), wk =   0.0658436
        k(   12) = (   0.3333333  -0.1111111   0.3333333), wk =   0.0658436
        k(   13) = (   0.2222222  -0.0000000   0.2222222), wk =   0.0329218
        k(   14) = (   0.0000000   0.4444444   0.0000000), wk =   0.0164609
        k(   15) = (  -0.1111111   0.5555556  -0.1111111), wk =   0.0658436
        k(   16) = (  -0.2222222   0.6666667  -0.2222222), wk =   0.0658436
        k(   17) = (   0.6666667  -0.2222222   0.6666667), wk =   0.0658436
        k(   18) = (   0.5555556  -0.1111111   0.5555556), wk =   0.0658436
        k(   19) = (   0.4444444   0.0000000   0.4444444), wk =   0.0329218
        k(   20) = (   0.0000000   0.6666667   0.0000000), wk =   0.0164609
        k(   21) = (  -0.1111111   0.7777778  -0.1111111), wk =   0.0658436
        k(   22) = (   0.7777778  -0.1111111   0.7777778), wk =   0.0658436
        k(   23) = (   0.6666667  -0.0000000   0.6666667), wk =   0.0329218
        k(   24) = (   0.0000000   0.8888889   0.0000000), wk =   0.0164609
        k(   25) = (   0.8888889   0.0000000   0.8888889), wk =   0.0329218
        k(   26) = (  -0.2222222   0.4444444   0.0000000), wk =   0.0658436
        k(   27) = (  -0.3333333   0.5555556  -0.1111111), wk =   0.1316872
        k(   28) = (   0.5555556  -0.3333333   0.7777778), wk =   0.1316872
        k(   29) = (  -0.2222222   0.6666667   0.0000000), wk =   0.0658436
        k(   30) = (   0.6666667  -0.2222222   0.8888889), wk =   0.1316872
        k(   31) = (   0.5555556  -0.1111111   0.7777778), wk =   0.1316872
        k(   32) = (   0.4444444   0.0000000   0.6666667), wk =   0.0658436
        k(   33) = (   0.7777778  -0.1111111   1.0000000), wk =   0.0658436
        k(   34) = (   0.6666667  -0.0000000   0.8888889), wk =   0.0658436
        k(   35) = (   0.5555556  -0.1111111   1.0000000), wk =   0.0658436

     Dense  grid:    17573 G-vectors     FFT dimensions: (  40,  40,  40)

     Largest allocated arrays     est. size (Mb)     dimensions
        Kohn-Sham Wavefunctions         0.13 Mb     (    568,   15)
        NL pseudopotentials             0.31 Mb     (    568,   36)
        Each V/rho on FFT grid          0.24 Mb     (  16000)
        Each G-vector array             0.03 Mb     (   4393)
        G-vector shells                 0.00 Mb     (    221)
     Largest temporary arrays     est. size (Mb)     dimensions
        Auxiliary wavefunctions         0.52 Mb     (    568,   60)
        Each subspace H/S matrix        0.05 Mb     (  60,  60)
        Each <psi_i|beta_j> matrix      0.01 Mb     (     36,   15)
        Arrays for rho mixing           1.95 Mb     (  16000,   8)

     Check: negative/imaginary core charge=   -0.000022    0.000000

     Initial potential from superposition of free atoms

     starting charge   21.99954, renormalised to   22.00000
     Starting wfc are   18 randomized atomic wfcs
     Checking if some PAW data can be deallocated... 

     total cpu time spent up to now is        3.2 secs

     per-process dynamical memory:    12.5 Mb

     Self-consistent Calculation

     iteration #  1     ecut=    60.00 Ry     beta=0.70
     Davidson diagonalization with overlap
     ethr =  1.00E-02,  avg # of iterations =  3.5

     Threshold (ethr) on eigenvalues was too large:
     Diagonalizing with lowered threshold

     Davidson diagonalization with overlap
     ethr =  1.36E-05,  avg # of iterations =  5.0

     total cpu time spent up to now is       12.9 secs

     total energy              =    -426.03672141 Ry
     Harris-Foulkes estimate   =    -426.03641630 Ry
     estimated scf accuracy    <       0.00411659 Ry

     iteration #  2     ecut=    60.00 Ry     beta=0.70
     Davidson diagonalization with overlap
     ethr =  1.87E-05,  avg # of iterations =  1.0

     total cpu time spent up to now is       16.4 secs

     total energy              =    -426.03625709 Ry
     Harris-Foulkes estimate   =    -426.03708165 Ry
     estimated scf accuracy    <       0.00136759 Ry

     iteration #  3     ecut=    60.00 Ry     beta=0.70
     Davidson diagonalization with overlap
     ethr =  6.22E-06,  avg # of iterations =  2.5

     total cpu time spent up to now is       20.9 secs

     total energy              =    -426.03630445 Ry
     Harris-Foulkes estimate   =    -426.03761699 Ry
     estimated scf accuracy    <       0.00425500 Ry

     iteration #  4     ecut=    60.00 Ry     beta=0.70
     Davidson diagonalization with overlap
     ethr =  6.22E-06,  avg # of iterations =  2.2

     total cpu time spent up to now is       25.2 secs

     total energy              =    -426.03692445 Ry
     Harris-Foulkes estimate   =    -426.03692563 Ry
     estimated scf accuracy    <       0.00000549 Ry

     iteration #  5     ecut=    60.00 Ry     beta=0.70
     Davidson diagonalization with overlap
     ethr =  2.49E-08,  avg # of iterations =  3.1

     total cpu time spent up to now is       29.7 secs

     End of self-consistent calculation

          k = 0.0000 0.0000 0.0000 (  2229 PWs)   bands (ev):

     0.2960   3.4787   3.4787   3.4787   3.5069   3.5069   4.4560   4.4560
     4.4560   5.0204   5.0204  15.3277  15.3277  15.3277  16.3193

          k =-0.1111 0.1111-0.1111 (  2181 PWs)   bands (ev):

     0.4762   3.4108   3.4108   3.4818   3.6017   3.6017   4.4228   4.4511
     4.4511   5.0211   5.0211  13.0818  14.6345  14.6345  16.6933

          k =-0.2222 0.2222-0.2222 (  2196 PWs)   bands (ev):

     0.9980   3.3816   3.3816   3.4968   3.6828   3.6828   4.3487   4.4637
     4.4637   5.0158   5.0158  10.4166  13.8096  13.8096  16.4677

          k =-0.3333 0.3333-0.3333 (  2205 PWs)   bands (ev):

     1.7708   3.4067   3.4067   3.5245   3.6827   3.6827   4.3412   4.5333
     4.5333   4.9919   4.9919   8.0614  13.2119  13.2119  16.3847

          k =-0.4444 0.4444-0.4444 (  2201 PWs)   bands (ev):

     2.4641   3.4669   3.4669   3.5269   3.6205   3.6205   4.6203   4.6203
     4.6973   4.9552   4.9552   6.2034  12.8986  12.8986  16.4584

          k = 0.0000 0.2222 0.0000 (  2181 PWs)   bands (ev):

     0.5368   3.3372   3.4880   3.4880   3.5571   3.6592   4.3211   4.4981
     4.4981   4.9796   5.0550  13.6745  13.6745  14.1610  15.4457

          k =-0.1111 0.3333-0.1111 (  2201 PWs)   bands (ev):

     0.9472   3.2874   3.4710   3.4957   3.6386   3.7453   4.2077   4.5238
     4.5459   4.9414   5.0750  11.3373  12.8502  13.6069  15.7499

          k =-0.2222 0.4444-0.2222 (  2200 PWs)   bands (ev):

     1.6478   3.2902   3.4791   3.5064   3.6713   3.7810   4.1715   4.5645
     4.6143   4.9104   5.0758   8.8992  12.3356  12.7747  15.6720

          k =-0.3333 0.5556-0.3333 (  2211 PWs)   bands (ev):

     2.4112   3.3315   3.4907   3.5138   3.6633   3.7282   4.3176   4.6418
     4.7742   4.9216   5.0497   6.8387  12.0400  12.2009  15.5289

          k = 0.5556-0.3333 0.5556 (  2205 PWs)   bands (ev):

     2.6779   3.3798   3.4368   3.5411   3.6374   3.7110   4.5014   4.5608
     4.9630   4.9914   5.1956   5.8550  11.5683  12.4702  15.7141

          k = 0.4444-0.2222 0.4444 (  2198 PWs)   bands (ev):

     2.1724   3.3617   3.4372   3.5362   3.6163   3.7801   4.3798   4.4421
     4.7473   4.9101   5.0499   7.4850  11.4473  13.1073  16.2398

          k = 0.3333-0.1111 0.3333 (  2195 PWs)   bands (ev):

     1.3860   3.3212   3.4463   3.4918   3.6498   3.7861   4.2909   4.3764
     4.6424   4.9274   5.0703   9.6936  11.6970  14.0058  17.0795

          k = 0.2222-0.0000 0.2222 (  2189 PWs)   bands (ev):

     0.7714   3.3376   3.4331   3.4904   3.6215   3.7053   4.3437   4.3974
     4.5457   4.9750   5.0564  12.1127  12.3982  14.8705  16.8338

          k = 0.0000 0.4444 0.0000 (  2209 PWs)   bands (ev):

     1.2422   3.2141   3.5051   3.5051   3.7002   3.8184   4.0144   4.6294
     4.6294   4.8604   5.1109  11.9530  11.9530  12.0258  14.4603

          k =-0.1111 0.5556-0.1111 (  2199 PWs)   bands (ev):

     1.8419   3.1938   3.4995   3.5080   3.7789   3.8565   3.9201   4.6930
     4.7131   4.8171   5.1413   9.8353  11.3617  11.3671  14.6043

          k =-0.2222 0.6667-0.2222 (  2208 PWs)   bands (ev):

     2.5762   3.2173   3.4677   3.4958   3.7976   3.8246   4.0452   4.6146
     4.8930   4.9140   5.1842   7.7483  10.4111  11.1824  14.5639

          k = 0.6667-0.2222 0.6667 (  2216 PWs)   bands (ev):

     2.9808   3.2550   3.4446   3.4757   3.7142   3.8777   4.2878   4.4776
     5.0193   5.0574   5.7225   6.0526   9.6819  11.4577  14.7324

          k = 0.5556-0.1111 0.5556 (  2215 PWs)   bands (ev):

     2.7167   3.3488   3.3721   3.5479   3.6005   3.9304   4.3442   4.4287
     4.9659   5.0368   5.0801   7.2247   9.3192  12.1492  15.2036

          k = 0.4444 0.0000 0.4444 (  2199 PWs)   bands (ev):

     2.0401   3.3209   3.4269   3.5120   3.6194   3.8981   4.3097   4.3327
     4.8311   4.8420   5.0945   9.0802   9.5410  13.1262  15.9917

          k = 0.0000 0.6667 0.0000 (  2181 PWs)   bands (ev):

     2.3286   3.1556   3.5144   3.5144   3.6686   3.9151   3.9397   4.6728
     4.8309   4.8309   5.2200   9.5429  10.6501  10.6501  13.8762

          k =-0.1111 0.7778-0.1111 (  2207 PWs)   bands (ev):

     2.9588   3.1741   3.4306   3.5081   3.6641   3.9631   4.0140   4.5429
     4.9471   4.9603   5.3773   8.2255   9.5306  10.3535  13.9906

          k = 0.7778-0.1111 0.7778 (  2204 PWs)   bands (ev):

     3.1879   3.3251   3.3847   3.4756   3.7384   4.0752   4.0836   4.3850
     5.0374   5.1075   5.8934   6.9539   8.2877  10.5445  14.1142

          k = 0.6667-0.0000 0.6667 (  2215 PWs)   bands (ev):

     3.1051   3.3352   3.4210   3.4551   3.6654   4.0822   4.2811   4.2982
     5.0787   5.1135   5.6841   7.1105   7.7923  11.1889  14.5046

          k = 0.0000 0.8889 0.0000 (  2204 PWs)   bands (ev):

     3.2007   3.3532   3.4740   3.5157   3.5157   3.9276   4.1713   4.4345
     5.0033   5.0033   5.7159   7.2466   9.9184   9.9184  13.6792

          k = 0.8889 0.0000 0.8889 (  2211 PWs)   bands (ev):

     3.2349   3.2948   3.5007   3.5049   3.7711   3.8769   4.2693   4.2991
     5.0380   5.0679   6.3922   6.3942   9.0076   9.9869  13.8038

          k =-0.2222 0.4444 0.0000 (  2200 PWs)   bands (ev):

     1.4529   3.2522   3.4841   3.4980   3.6794   3.8312   4.0919   4.5246
     4.6858   4.8743   5.1013  10.4866  10.8968  13.0781  15.9641

          k =-0.3333 0.5556-0.1111 (  2205 PWs)   bands (ev):

     2.1843   3.2677   3.4383   3.5355   3.6851   3.8689   4.1127   4.5588
     4.7973   4.8710   5.1122   8.3760  10.3799  12.1465  16.0067

          k = 0.5556-0.3333 0.7778 (  2211 PWs)   bands (ev):

     2.7999   3.2953   3.3898   3.5509   3.7026   3.8193   4.3002   4.5270
     4.9752   5.0383   5.2541   6.4895  10.3174  11.4620  15.8952

          k =-0.2222 0.6667 0.0000 (  2208 PWs)   bands (ev):

     2.4699   3.1899   3.4372   3.5310   3.8247   3.8483   3.9480   4.6217
     4.8544   4.8860   5.2045   9.0026   9.7757  10.7276  15.2327

          k = 0.6667-0.2222 0.8889 (  2213 PWs)   bands (ev):

     3.0487   3.2157   3.3638   3.5344   3.8246   3.9201   4.0646   4.4804
     5.0079   5.0545   5.4384   7.4219   9.0986  10.1496  15.3918

          k = 0.5556-0.1111 0.7778 (  2218 PWs)   bands (ev):

     3.1447   3.2744   3.3472   3.5332   3.7534   3.9890   4.2332   4.3598
     5.0696   5.1042   5.8581   6.5675   8.5824  10.3900  15.6830

          k = 0.4444 0.0000 0.6667 (  2222 PWs)   bands (ev):

     2.8043   3.2893   3.3535   3.5577   3.6906   3.9955   4.1228   4.4907
     4.9891   5.0068   5.1813   7.9640   8.5701  11.1545  16.2166

          k = 0.7778-0.1111 1.0000 (  2209 PWs)   bands (ev):

     3.2085   3.3093   3.3757   3.5259   3.7558   3.9356   4.1299   4.3990
     5.0472   5.0479   5.7832   7.2872   9.1864   9.3742  14.9206

          k = 0.6667-0.0000 0.8889 (  2203 PWs)   bands (ev):

     3.2057   3.2930   3.4488   3.5061   3.8111   4.0525   4.1815   4.2593
     5.0816   5.1296   6.4327   6.6527   8.0045   9.6086  15.1946

          k = 0.5556-0.1111 1.0000 (  2212 PWs)   bands (ev):

     3.2291   3.2400   3.3984   3.5299   3.9103   4.0149   4.1014   4.3020
     5.1057   5.1198   6.0778   7.1155   8.1950   9.0456  17.0968

     the Fermi energy is     6.0866 ev

!    total energy              =    -426.03692774 Ry
     Harris-Foulkes estimate   =    -426.03692769 Ry
     estimated scf accuracy    <       0.00000007 Ry

     total all-electron energy =     -6619.796464 Ry

     The total energy is the sum of the following terms:

     one-electron contribution =    -120.88140597 Ry
     hartree contribution      =      59.44540033 Ry
     xc contribution           =     -73.44849032 Ry
     ewald contribution        =    -125.34664683 Ry
     one-center paw contrib.   =    -165.80570387 Ry
     smearing contrib. (-TS)   =      -0.00008109 Ry

     convergence has been achieved in   5 iterations

     Writing output data file Cu.save

     init_run     :      2.33s CPU      2.44s WALL (       1 calls)
     electrons    :     25.74s CPU     26.50s WALL (       1 calls)

     Called by init_run:
     wfcinit      :      1.28s CPU      1.33s WALL (       1 calls)
     potinit      :      0.37s CPU      0.39s WALL (       1 calls)

     Called by electrons:
     c_bands      :     19.44s CPU     19.99s WALL (       6 calls)
     sum_band     :      4.02s CPU      4.12s WALL (       6 calls)
     v_of_rho     :      0.19s CPU      0.19s WALL (       6 calls)
     newd         :      0.30s CPU      0.32s WALL (       6 calls)
     mix_rho      :      0.13s CPU      0.13s WALL (       6 calls)

     Called by c_bands:
     init_us_2    :      0.37s CPU      0.37s WALL (     455 calls)
     cegterg      :     18.52s CPU     19.04s WALL (     210 calls)

     Called by *egterg:
     h_psi        :     16.62s CPU     17.09s WALL (     852 calls)
     s_psi        :      0.39s CPU      0.39s WALL (     852 calls)
     g_psi        :      0.11s CPU      0.12s WALL (     607 calls)
     cdiaghg      :      0.99s CPU      0.99s WALL (     782 calls)

     Called by h_psi:
     add_vuspsi   :      0.40s CPU      0.41s WALL (     852 calls)

     General routines
     calbec       :      0.66s CPU      0.66s WALL (    1062 calls)
     fft          :      0.08s CPU      0.10s WALL (      80 calls)
     fftw         :     17.00s CPU     17.55s WALL (   21894 calls)
     davcio       :      0.07s CPU      0.07s WALL (     665 calls)

     Parallel routines
     fft_scatter  :      3.65s CPU      3.61s WALL (   21974 calls)

     PAW routines
     PAW_pot      :      2.03s CPU      2.13s WALL (       6 calls)
     PAW_ddot     :      0.11s CPU      0.12s WALL (      22 calls)
     PAW_symme    :      0.01s CPU      0.01s WALL (      12 calls)

     PWSCF        :    29.11s CPU        30.01s WALL


   This run was terminated on:  19:16:16  27Feb2016            

=------------------------------------------------------------------------------=
   JOB DONE.
=------------------------------------------------------------------------------=
