
     Program PWSCF v.5.0.2 (svn rev. 9656) starts on 26Jul2015 at  2:54: 0 

     This program is part of the open-source Quantum ESPRESSO suite
     for quantum simulation of materials; please cite
         "P. Giannozzi et al., J. Phys.:Condens. Matter 21 395502 (2009);
          URL http://www.quantum-espresso.org", 
     in publications or presentations arising from this work. More details at
     http://www.quantum-espresso.org/quote.php

     Parallel version (MPI), running on     4 processors
     R & G space division:  proc/nbgrp/npool/nimage =       4

     Current dimensions of program PWSCF are:
     Max number of different atomic species (ntypx) = 10
     Max number of k-points (npk) =  40000
     Max angular momentum in pseudopotentials (lmaxx) =  3
     Waiting for input...
     Reading input from standard input
               file C.pbe-rrkjus.UPF: wavefunction(s)  2S 2P renormalized

     Subspace diagonalization in iterative solution of the eigenvalue problem:
     a serial algorithm will be used


     Parallelization info
     --------------------
     sticks:   dense  smooth     PW     G-vecs:    dense   smooth      PW
     Min         211     118     37                58589    25188    4247
     Max         212     119     38                58614    25239    4266
     Sum         847     475    151               234415   100883   17041



     bravais-lattice index     =            0
     lattice parameter (alat)  =       4.6500  a.u.
     unit-cell volume          =    1044.8904 (a.u.)^3
     number of atoms/cell      =            2
     number of atomic types    =            1
     number of electrons       =         8.00
     number of Kohn-Sham states=            8
     kinetic-energy cutoff     =      80.0000  Ry
     charge density cutoff     =     560.0000  Ry
     convergence threshold     =      1.0E-08
     mixing beta               =       0.7000
     number of iterations used =            8  plain     mixing
     Exchange-correlation      =  SLA  PW   PBE  PBE ( 1 4 3 4 0)
     EXX-fraction              =        0.00

     celldm(1)=   4.650000  celldm(2)=   0.000000  celldm(3)=   0.000000
     celldm(4)=   0.000000  celldm(5)=   0.000000  celldm(6)=   0.000000

     crystal axes: (cart. coord. in units of alat)
               a(1) = (   1.000000   0.000000   0.000000 )  
               a(2) = (   0.500000   0.866025   0.000000 )  
               a(3) = (   0.000000   0.000000  12.000000 )  

     reciprocal axes: (cart. coord. in units 2 pi/alat)
               b(1) = (  1.000000 -0.577350  0.000000 )  
               b(2) = (  0.000000  1.154701  0.000000 )  
               b(3) = (  0.000000  0.000000  0.083333 )  


     PseudoPot. # 1 for C  read from file:
     ./C.pbe-rrkjus.UPF
     MD5 check sum: 00fb224312de0c5b6853bd333518df6f
     Pseudo is Ultrasoft, Zval =  4.0
     Generated by new atomic code, or converted to UPF format
     Using radial grid of  627 points,  4 beta functions with: 
                l(1) =   0
                l(2) =   0
                l(3) =   1
                l(4) =   1
     Q(r) pseudized with 0 coefficients 


     atomic species   valence    mass     pseudopotential
        C              4.00    12.00000     C ( 1.00)

     24 Sym. Ops., with inversion, found (12 have fractional translation)



   Cartesian axes

     site n.     atom                  positions (alat units)
         1           C   tau(   1) = (   0.0000000   0.0000000   0.0000000  )
         2           C   tau(   2) = (   1.0000000   0.5773503   0.0000000  )

     number of k points=    12  gaussian smearing, width (Ry)=  0.0010
                       cart. coord. in units 2pi/alat
        k(    1) = (   0.0000000   0.0000000   0.0000000), wk =   0.0246914
        k(    2) = (   0.0000000   0.1283001   0.0000000), wk =   0.1481481
        k(    3) = (   0.0000000   0.2566001   0.0000000), wk =   0.1481481
        k(    4) = (   0.0000000   0.3849002   0.0000000), wk =   0.1481481
        k(    5) = (   0.0000000   0.5132002   0.0000000), wk =   0.1481481
        k(    6) = (   0.1111111   0.1924501   0.0000000), wk =   0.1481481
        k(    7) = (   0.1111111   0.3207502   0.0000000), wk =   0.2962963
        k(    8) = (   0.1111111   0.4490502   0.0000000), wk =   0.2962963
        k(    9) = (   0.1111111  -0.5773503   0.0000000), wk =   0.1481481
        k(   10) = (   0.2222222   0.3849002   0.0000000), wk =   0.1481481
        k(   11) = (   0.2222222  -0.6415003   0.0000000), wk =   0.2962963
        k(   12) = (   0.3333333  -0.5773503   0.0000000), wk =   0.0493827

     Dense  grid:   234415 G-vectors     FFT dimensions: (  36,  36, 432)

     Smooth grid:   100883 G-vectors     FFT dimensions: (  27,  27, 320)

     Largest allocated arrays     est. size (Mb)     dimensions
        Kohn-Sham Wavefunctions         0.39 Mb     (   3174,    8)
        NL pseudopotentials             0.77 Mb     (   3174,   16)
        Each V/rho on FFT grid          2.14 Mb     ( 139968)
        Each G-vector array             0.45 Mb     (  58604)
        G-vector shells                 0.13 Mb     (  17392)
     Largest temporary arrays     est. size (Mb)     dimensions
        Auxiliary wavefunctions         1.55 Mb     (   3174,   32)
        Each subspace H/S matrix        0.02 Mb     (  32,  32)
        Each <psi_i|beta_j> matrix      0.00 Mb     (     16,    8)
        Arrays for rho mixing          17.09 Mb     ( 139968,   8)

     Initial potential from superposition of free atoms

     starting charge    7.99989, renormalised to    8.00000

     negative rho (up, down):  0.254E-04 0.000E+00
     Starting wfc are    8 randomized atomic wfcs

     total cpu time spent up to now is        3.9 secs

     per-process dynamical memory:    30.6 Mb

     Self-consistent Calculation

     iteration #  1     ecut=    80.00 Ry     beta=0.70
     Davidson diagonalization with overlap
     ethr =  1.00E-02,  avg # of iterations =  5.0

     negative rho (up, down):  0.177E-04 0.000E+00

     total cpu time spent up to now is       11.4 secs

     total energy              =     -22.75844009 Ry
     Harris-Foulkes estimate   =     -22.88293486 Ry
     estimated scf accuracy    <       0.20659141 Ry

     iteration #  2     ecut=    80.00 Ry     beta=0.70
     Davidson diagonalization with overlap
     ethr =  2.58E-03,  avg # of iterations =  4.2

     negative rho (up, down):  0.171E-04 0.000E+00

     total cpu time spent up to now is       18.7 secs

     total energy              =     -22.78956625 Ry
     Harris-Foulkes estimate   =     -22.78970307 Ry
     estimated scf accuracy    <       0.00251187 Ry

     iteration #  3     ecut=    80.00 Ry     beta=0.70
     Davidson diagonalization with overlap
     ethr =  3.14E-05,  avg # of iterations =  9.4

     negative rho (up, down):  0.186E-04 0.000E+00

     total cpu time spent up to now is       29.5 secs

     total energy              =     -22.78993096 Ry
     Harris-Foulkes estimate   =     -22.78990056 Ry
     estimated scf accuracy    <       0.00013682 Ry

     iteration #  4     ecut=    80.00 Ry     beta=0.70
     Davidson diagonalization with overlap
     ethr =  1.71E-06,  avg # of iterations =  4.8

     negative rho (up, down):  0.187E-04 0.000E+00

     total cpu time spent up to now is       37.1 secs

     total energy              =     -22.78993637 Ry
     Harris-Foulkes estimate   =     -22.78993554 Ry
     estimated scf accuracy    <       0.00000097 Ry

     iteration #  5     ecut=    80.00 Ry     beta=0.70
     Davidson diagonalization with overlap
     ethr =  1.21E-08,  avg # of iterations =  2.3

     negative rho (up, down):  0.187E-04 0.000E+00

     total cpu time spent up to now is       44.1 secs

     total energy              =     -22.78993667 Ry
     Harris-Foulkes estimate   =     -22.78993666 Ry
     estimated scf accuracy    <       0.00000003 Ry

     iteration #  6     ecut=    80.00 Ry     beta=0.70
     Davidson diagonalization with overlap
     ethr =  3.28E-10,  avg # of iterations =  2.0

     negative rho (up, down):  0.186E-04 0.000E+00

     total cpu time spent up to now is       50.6 secs

     End of self-consistent calculation

          k = 0.0000 0.0000 0.0000 ( 12735 PWs)   bands (ev):

   -22.4912 -10.6016  -6.0244  -6.0244   0.3036   1.0417   1.2090   1.5613

          k = 0.0000 0.1283 0.0000 ( 12749 PWs)   bands (ev):

   -22.1993 -10.2525  -7.1343  -6.5976   0.7011   1.4457   1.6176   1.9678

          k = 0.0000 0.2566 0.0000 ( 12653 PWs)   bands (ev):

   -21.3296  -9.6757  -9.2231  -7.7537   1.8925   2.6525   2.8434   3.1847

          k = 0.0000 0.3849 0.0000 ( 12626 PWs)   bands (ev):

   -19.9029 -12.6019  -8.7747  -7.5939   1.9771   3.8614   4.6830   4.8234

          k = 0.0000 0.5132 0.0000 ( 12572 PWs)   bands (ev):

   -17.9946 -15.3471  -9.3387  -5.7455  -0.7264   4.5365   6.6301   7.4634

          k = 0.1111 0.1925 0.0000 ( 12675 PWs)   bands (ev):

   -21.6186  -9.5625  -8.6841  -7.7425   1.4964   2.2523   2.4349   2.7804

          k = 0.1111 0.3208 0.0000 ( 12622 PWs)   bands (ev):

   -20.4702 -11.1286  -9.1254  -8.2234   3.0827   3.2313   3.8723   4.0693

          k = 0.1111 0.4491 0.0000 ( 12614 PWs)   bands (ev):

   -18.7921 -13.8868 -10.0051  -6.3914   0.3825   5.4224   5.9056   6.2465

          k = 0.1111-0.5774 0.0000 ( 12562 PWs)   bands (ev):

   -17.0421 -16.0364 -10.3047  -5.0517  -1.3456   5.7306   8.4414   8.6130

          k = 0.2222 0.3849 0.0000 ( 12663 PWs)   bands (ev):

   -19.0680 -12.6385 -11.1394  -6.6378   1.0116   5.0526   5.8111   6.1123

          k = 0.2222-0.6415 0.0000 ( 12599 PWs)   bands (ev):

   -17.2151 -14.7543 -12.1361  -4.7570  -1.2324   7.7315   7.9484   8.5920

          k = 0.3333-0.5774 0.0000 ( 12642 PWs)   bands (ev):

   -15.5521 -15.5521 -13.5624  -2.9488  -2.9488   7.6897   9.9571   9.9571

     the Fermi energy is    -2.9488 ev

!    total energy              =     -22.78993667 Ry
     Harris-Foulkes estimate   =     -22.78993668 Ry
     estimated scf accuracy    <          9.3E-10 Ry

     The total energy is the sum of the following terms:

     one-electron contribution =    -353.75989295 Ry
     hartree contribution      =     177.89035688 Ry
     xc contribution           =      -7.02461417 Ry
     ewald contribution        =     160.10424143 Ry
     smearing contrib. (-TS)   =      -0.00002786 Ry

     convergence has been achieved in   6 iterations

     Writing output data file graphene.save

     init_run     :      3.65s CPU      3.81s WALL (       1 calls)
     electrons    :     44.42s CPU     46.70s WALL (       1 calls)

     Called by init_run:
     wfcinit      :      1.25s CPU      1.29s WALL (       1 calls)
     potinit      :      1.10s CPU      1.15s WALL (       1 calls)

     Called by electrons:
     c_bands      :     29.53s CPU     30.85s WALL (       6 calls)
     sum_band     :      8.65s CPU      9.18s WALL (       6 calls)
     v_of_rho     :      2.72s CPU      2.89s WALL (       7 calls)
     newd         :      3.02s CPU      3.18s WALL (       7 calls)
     mix_rho      :      0.42s CPU      0.46s WALL (       6 calls)

     Called by c_bands:
     init_us_2    :      0.39s CPU      0.50s WALL (     156 calls)
     cegterg      :     28.97s CPU     30.18s WALL (      72 calls)

     Called by *egterg:
     h_psi        :     27.05s CPU     28.16s WALL (     417 calls)
     s_psi        :      0.40s CPU      0.40s WALL (     417 calls)
     g_psi        :      0.14s CPU      0.15s WALL (     333 calls)
     cdiaghg      :      0.19s CPU      0.19s WALL (     405 calls)

     Called by h_psi:
     add_vuspsi   :      0.37s CPU      0.38s WALL (     417 calls)

     General routines
     calbec       :      0.61s CPU      0.64s WALL (     489 calls)
     fft          :      2.52s CPU      2.71s WALL (     107 calls)
     ffts         :      0.12s CPU      0.12s WALL (      13 calls)
     fftw         :     22.26s CPU     23.42s WALL (    4350 calls)
     interpolate  :      0.53s CPU      0.53s WALL (      13 calls)
     davcio       :      0.12s CPU      0.17s WALL (     228 calls)

     Parallel routines
     fft_scatter  :     11.59s CPU     12.65s WALL (    4470 calls)

     PWSCF        :    48.33s CPU        50.82s WALL


   This run was terminated on:   2:54:50  26Jul2015            

=------------------------------------------------------------------------------=
   JOB DONE.
=------------------------------------------------------------------------------=
