
     Program PWSCF v.5.0.2 (svn rev. 9656) starts on 11Jul2015 at 22:25:48 

     This program is part of the open-source Quantum ESPRESSO suite
     for quantum simulation of materials; please cite
         "P. Giannozzi et al., J. Phys.:Condens. Matter 21 395502 (2009);
          URL http://www.quantum-espresso.org", 
     in publications or presentations arising from this work. More details at
     http://www.quantum-espresso.org/quote.php

     Parallel version (MPI), running on     4 processors
     R & G space division:  proc/nbgrp/npool/nimage =       4

     Current dimensions of program PWSCF are:
     Max number of different atomic species (ntypx) = 10
     Max number of k-points (npk) =  40000
     Max angular momentum in pseudopotentials (lmaxx) =  3
     Waiting for input...
     Reading input from standard input
               file Cu.pbe.UPF: wavefunction(s)  4S 3D renormalized

     Atomic positions and unit cell read from directory:
     ./Cu.save/


     Subspace diagonalization in iterative solution of the eigenvalue problem:
     a serial algorithm will be used


     Parallelization info
     --------------------
     sticks:   dense  smooth     PW     G-vecs:    dense   smooth      PW
     Min         250     250     73                 5217     5217     821
     Max         251     251     74                 5220     5220     823
     Sum        1003    1003    295                20875    20875    3287



     bravais-lattice index     =            2
     lattice parameter (alat)  =      10.2000  a.u.
     unit-cell volume          =     265.3020 (a.u.)^3
     number of atoms/cell      =            2
     number of atomic types    =            1
     number of electrons       =        22.00
     number of Kohn-Sham states=           15
     kinetic-energy cutoff     =      70.0000  Ry
     charge density cutoff     =     280.0000  Ry
     Exchange-correlation      =  SLA  PW   PBX  PBC ( 1 4 3 4 0)
     EXX-fraction              =        0.00

     celldm(1)=  10.200000  celldm(2)=   0.000000  celldm(3)=   0.000000
     celldm(4)=   0.000000  celldm(5)=   0.000000  celldm(6)=   0.000000

     crystal axes: (cart. coord. in units of alat)
               a(1) = (  -0.500000   0.000000   0.500000 )  
               a(2) = (   0.000000   0.500000   0.500000 )  
               a(3) = (  -0.500000   0.500000   0.000000 )  

     reciprocal axes: (cart. coord. in units 2 pi/alat)
               b(1) = ( -1.000000 -1.000000  1.000000 )  
               b(2) = (  1.000000  1.000000  1.000000 )  
               b(3) = ( -1.000000  1.000000 -1.000000 )  


     PseudoPot. # 1 for Cu read from file:
     ./Cu.pbe.UPF
     MD5 check sum: 0c51aa2b3b25e0d1c3270f17c0a46a12
     Pseudo is Projector augmented-wave + core cor, Zval = 11.0
     Generated using "atomic" code by A. Dal Corso  v.5.0.99 svn rev. 10869
     Shape of augmentation charge: BESSEL
     Using radial grid of 1199 points,  6 beta functions with: 
                l(1) =   0
                l(2) =   0
                l(3) =   1
                l(4) =   1
                l(5) =   2
                l(6) =   2
     Q(r) pseudized with 0 coefficients 


     atomic species   valence    mass     pseudopotential
        Cu            11.00    63.54600     Cu( 1.00)

     48 Sym. Ops., with inversion, found (24 have fractional translation)



   Cartesian axes

     site n.     atom                  positions (alat units)
         1           Cu  tau(   1) = (   0.0000000   0.0000000   0.0000000  )
         2           Cu  tau(   2) = (   0.2500000   0.2500000   0.2500000  )

     number of k points=    81  gaussian smearing, width (Ry)=  0.0030
                       cart. coord. in units 2pi/alat
        k(    1) = (   0.0000000   0.0000000   0.0000000), wk =   0.0246914
        k(    2) = (   0.0000000   0.0500000   0.0000000), wk =   0.0246914
        k(    3) = (   0.0000000   0.1000000   0.0000000), wk =   0.0246914
        k(    4) = (   0.0000000   0.1500000   0.0000000), wk =   0.0246914
        k(    5) = (   0.0000000   0.2000000   0.0000000), wk =   0.0246914
        k(    6) = (   0.0000000   0.2500000   0.0000000), wk =   0.0246914
        k(    7) = (   0.0000000   0.3000000   0.0000000), wk =   0.0246914
        k(    8) = (   0.0000000   0.3500000   0.0000000), wk =   0.0246914
        k(    9) = (   0.0000000   0.4000000   0.0000000), wk =   0.0246914
        k(   10) = (   0.0000000   0.4500000   0.0000000), wk =   0.0246914
        k(   11) = (   0.0000000   0.5000000   0.0000000), wk =   0.0246914
        k(   12) = (   0.0000000   0.5500000   0.0000000), wk =   0.0246914
        k(   13) = (   0.0000000   0.6000000   0.0000000), wk =   0.0246914
        k(   14) = (   0.0000000   0.6500000   0.0000000), wk =   0.0246914
        k(   15) = (   0.0000000   0.7000000   0.0000000), wk =   0.0246914
        k(   16) = (   0.0000000   0.7500000   0.0000000), wk =   0.0246914
        k(   17) = (   0.0000000   0.8000000   0.0000000), wk =   0.0246914
        k(   18) = (   0.0000000   0.8500000   0.0000000), wk =   0.0246914
        k(   19) = (   0.0000000   0.9000000   0.0000000), wk =   0.0246914
        k(   20) = (   0.0000000   0.9500000   0.0000000), wk =   0.0246914
        k(   21) = (   0.0000000   1.0000000   0.0000000), wk =   0.0246914
        k(   22) = (   0.0375000   0.9875000   0.0000000), wk =   0.0246914
        k(   23) = (   0.0750000   0.9750000   0.0000000), wk =   0.0246914
        k(   24) = (   0.1125000   0.9625000   0.0000000), wk =   0.0246914
        k(   25) = (   0.1500000   0.9500000   0.0000000), wk =   0.0246914
        k(   26) = (   0.1875000   0.9375000   0.0000000), wk =   0.0246914
        k(   27) = (   0.2250000   0.9250000   0.0000000), wk =   0.0246914
        k(   28) = (   0.2625000   0.9125000   0.0000000), wk =   0.0246914
        k(   29) = (   0.3000000   0.9000000   0.0000000), wk =   0.0246914
        k(   30) = (   0.3375000   0.8875000   0.0000000), wk =   0.0246914
        k(   31) = (   0.3750000   0.8750000   0.0000000), wk =   0.0246914
        k(   32) = (   0.4125000   0.8625000   0.0000000), wk =   0.0246914
        k(   33) = (   0.4500000   0.8500000   0.0000000), wk =   0.0246914
        k(   34) = (   0.4875000   0.8375000   0.0000000), wk =   0.0246914
        k(   35) = (   0.5250000   0.8250000   0.0000000), wk =   0.0246914
        k(   36) = (   0.5625000   0.8125000   0.0000000), wk =   0.0246914
        k(   37) = (   0.6000000   0.8000000   0.0000000), wk =   0.0246914
        k(   38) = (   0.6375000   0.7875000   0.0000000), wk =   0.0246914
        k(   39) = (   0.6750000   0.7750000   0.0000000), wk =   0.0246914
        k(   40) = (   0.7125000   0.7625000   0.0000000), wk =   0.0246914
        k(   41) = (   0.7500000   0.7500000   0.0000000), wk =   0.0246914
        k(   42) = (   0.7125000   0.7125000   0.0000000), wk =   0.0246914
        k(   43) = (   0.6750000   0.6750000   0.0000000), wk =   0.0246914
        k(   44) = (   0.6375000   0.6375000   0.0000000), wk =   0.0246914
        k(   45) = (   0.6000000   0.6000000   0.0000000), wk =   0.0246914
        k(   46) = (   0.5625000   0.5625000   0.0000000), wk =   0.0246914
        k(   47) = (   0.5250000   0.5250000   0.0000000), wk =   0.0246914
        k(   48) = (   0.4875000   0.4875000   0.0000000), wk =   0.0246914
        k(   49) = (   0.4500000   0.4500000   0.0000000), wk =   0.0246914
        k(   50) = (   0.4125000   0.4125000   0.0000000), wk =   0.0246914
        k(   51) = (   0.3750000   0.3750000   0.0000000), wk =   0.0246914
        k(   52) = (   0.3375000   0.3375000   0.0000000), wk =   0.0246914
        k(   53) = (   0.3000000   0.3000000   0.0000000), wk =   0.0246914
        k(   54) = (   0.2625000   0.2625000   0.0000000), wk =   0.0246914
        k(   55) = (   0.2250000   0.2250000   0.0000000), wk =   0.0246914
        k(   56) = (   0.1875000   0.1875000   0.0000000), wk =   0.0246914
        k(   57) = (   0.1500000   0.1500000   0.0000000), wk =   0.0246914
        k(   58) = (   0.1125000   0.1125000   0.0000000), wk =   0.0246914
        k(   59) = (   0.0750000   0.0750000   0.0000000), wk =   0.0246914
        k(   60) = (   0.0375000   0.0375000   0.0000000), wk =   0.0246914
        k(   61) = (   0.0000000   0.0000000   0.0000000), wk =   0.0246914
        k(   62) = (   0.0250000   0.0250000   0.0250000), wk =   0.0246914
        k(   63) = (   0.0500000   0.0500000   0.0500000), wk =   0.0246914
        k(   64) = (   0.0750000   0.0750000   0.0750000), wk =   0.0246914
        k(   65) = (   0.1000000   0.1000000   0.1000000), wk =   0.0246914
        k(   66) = (   0.1250000   0.1250000   0.1250000), wk =   0.0246914
        k(   67) = (   0.1500000   0.1500000   0.1500000), wk =   0.0246914
        k(   68) = (   0.1750000   0.1750000   0.1750000), wk =   0.0246914
        k(   69) = (   0.2000000   0.2000000   0.2000000), wk =   0.0246914
        k(   70) = (   0.2250000   0.2250000   0.2250000), wk =   0.0246914
        k(   71) = (   0.2500000   0.2500000   0.2500000), wk =   0.0246914
        k(   72) = (   0.2750000   0.2750000   0.2750000), wk =   0.0246914
        k(   73) = (   0.3000000   0.3000000   0.3000000), wk =   0.0246914
        k(   74) = (   0.3250000   0.3250000   0.3250000), wk =   0.0246914
        k(   75) = (   0.3500000   0.3500000   0.3500000), wk =   0.0246914
        k(   76) = (   0.3750000   0.3750000   0.3750000), wk =   0.0246914
        k(   77) = (   0.4000000   0.4000000   0.4000000), wk =   0.0246914
        k(   78) = (   0.4250000   0.4250000   0.4250000), wk =   0.0246914
        k(   79) = (   0.4500000   0.4500000   0.4500000), wk =   0.0246914
        k(   80) = (   0.4750000   0.4750000   0.4750000), wk =   0.0246914
        k(   81) = (   0.5000000   0.5000000   0.5000000), wk =   0.0246914

     Dense  grid:    20875 G-vectors     FFT dimensions: (  40,  40,  40)

     Largest allocated arrays     est. size (Mb)     dimensions
        Kohn-Sham Wavefunctions         0.16 Mb     (    686,   15)
        NL pseudopotentials             0.38 Mb     (    686,   36)
        Each V/rho on FFT grid          0.24 Mb     (  16000)
        Each G-vector array             0.04 Mb     (   5220)
        G-vector shells                 0.00 Mb     (    247)
     Largest temporary arrays     est. size (Mb)     dimensions
        Auxiliary wavefunctions         0.63 Mb     (    686,   60)
        Each subspace H/S matrix        0.05 Mb     (  60,  60)
        Each <psi_i|beta_j> matrix      0.01 Mb     (     36,   15)

     Check: negative/imaginary core charge=   -0.000072    0.000000

     The potential is recalculated from file :
     ./Cu.save/charge-density.dat

     Starting wfc are   18 randomized atomic wfcs
     Checking if some PAW data can be deallocated... 

     total cpu time spent up to now is        2.0 secs

     per-process dynamical memory:    13.4 Mb

     Band Structure Calculation
     Davidson diagonalization with overlap

     ethr =  4.55E-11,  avg # of iterations = 22.8

     total cpu time spent up to now is       39.6 secs

     End of band structure calculation

          k = 0.0000 0.0000 0.0000     band energies (ev):

     0.6890   3.9860   3.9860   3.9860   4.0085   4.0085   5.0412   5.0412
     5.0412   5.6652   5.6652  16.3929  16.3929  16.3929  17.3402

          k = 0.0000 0.0500 0.0000     band energies (ev):

     0.7018   3.9558   3.9866   3.9866   4.0113   4.0392   5.0330   5.0435
     5.0435   5.6629   5.6676  16.1646  16.1646  16.3137  17.2679

          k = 0.0000 0.1000 0.0000     band energies (ev):

     0.7402   3.9175   3.9883   3.9883   4.0197   4.0793   5.0088   5.0503
     5.0503   5.6561   5.6745  15.7388  15.7388  16.0970  17.0824

          k = 0.0000 0.1500 0.0000     band energies (ev):

     0.8041   3.8797   3.9910   3.9910   4.0336   4.1201   4.9702   5.0617
     5.0617   5.6447   5.6847  15.2810  15.2810  15.7837  16.8388

          k = 0.0000 0.2000 0.0000     band energies (ev):

     0.8933   3.8430   3.9946   3.9946   4.0529   4.1611   4.9193   5.0780
     5.0780   5.6288   5.6969  14.8248  14.8248  15.4070  16.5762

          k = 0.0000 0.2500 0.0000     band energies (ev):

     1.0075   3.8079   3.9987   3.9987   4.0775   4.2020   4.8581   5.0992
     5.0992   5.6086   5.7100  14.3799  14.3799  14.9850  16.3152

          k = 0.0000 0.3000 0.0000     band energies (ev):

     1.1462   3.7745   4.0032   4.0032   4.1072   4.2425   4.7887   5.1254
     5.1254   5.5839   5.7233  13.9501  13.9501  14.5257  16.0663

          k = 0.0000 0.3500 0.0000     band energies (ev):

     1.3089   3.7434   4.0077   4.0077   4.1418   4.2824   4.7128   5.1568
     5.1568   5.5551   5.7365  13.5380  13.5380  14.0323  15.8349

          k = 0.0000 0.4000 0.0000     band energies (ev):

     1.4949   3.7149   4.0120   4.0120   4.1809   4.3212   4.6321   5.1932
     5.1932   5.5221   5.7498  13.1450  13.1450  13.5070  15.6236

          k = 0.0000 0.4500 0.0000     band energies (ev):

     1.7030   3.6896   4.0159   4.0159   4.2244   4.3587   4.5481   5.2344
     5.2344   5.4852   5.7639  12.7728  12.7728  12.9537  15.4334

          k = 0.0000 0.5000 0.0000     band energies (ev):

     1.9320   3.6678   4.0192   4.0192   4.2718   4.3942   4.4623   5.2800
     5.2800   5.4444   5.7799  12.3786  12.4227  12.4227  15.2648

          k = 0.0000 0.5500 0.0000     band energies (ev):

     2.1798   3.6502   4.0219   4.0219   4.3229   4.3760   4.4272   5.3291
     5.3291   5.4000   5.7997  11.7894  12.0962  12.0962  15.1175

          k = 0.0000 0.6000 0.0000     band energies (ev):

     2.4439   3.6371   4.0240   4.0240   4.2905   4.3772   4.4568   5.3522
     5.3808   5.3808   5.8256  11.1942  11.7952  11.7952  14.9911

          k = 0.0000 0.6500 0.0000     band energies (ev):

     2.7205   3.6293   4.0254   4.0254   4.2070   4.4344   4.4820   5.3013
     5.4336   5.4336   5.8613  10.6007  11.5213  11.5213  14.8852

          k = 0.0000 0.7000 0.0000     band energies (ev):

     3.0041   3.6270   4.0264   4.0264   4.1267   4.4941   4.5013   5.2474
     5.4860   5.4860   5.9121  10.0159  11.2767  11.2767  14.7990

          k = 0.0000 0.7500 0.0000     band energies (ev):

     3.2874   3.6308   4.0269   4.0269   4.0505   4.5131   4.5558   5.1908
     5.5359   5.5359   5.9853   9.4462  11.0638  11.0638  14.7322

          k = 0.0000 0.8000 0.0000     band energies (ev):

     3.5598   3.6411   3.9796   4.0271   4.0271   4.5146   4.6190   5.1319
     5.5810   5.5810   6.0906   8.8976  10.8849  10.8849  14.6842

          k = 0.0000 0.8500 0.0000     band energies (ev):

     3.6582   3.8058   3.9183   4.0272   4.0272   4.5026   4.6835   5.0710
     5.6193   5.6193   6.2401   8.3763  10.7424  10.7424  14.6547

          k = 0.0000 0.9000 0.0000     band energies (ev):

     3.6824   3.8488   4.0271   4.0271   4.0314   4.4720   4.7487   5.0084
     5.6485   5.6485   6.4457   7.8891  10.6387  10.6387  14.6437

          k = 0.0000 0.9500 0.0000     band energies (ev):

     3.7138   3.7978   4.0271   4.0271   4.2020   4.4168   4.8142   4.9445
     5.6668   5.6668   6.7153   7.4440  10.5757  10.5757  14.6513

          k = 0.0000 1.0000 0.0000     band energies (ev):

     3.7524   3.7524   4.0271   4.0271   4.3293   4.3293   4.8796   4.8796
     5.6731   5.6731   7.0499   7.0499  10.5545  10.5545  14.6777

          k = 0.0375 0.9875 0.0000     band energies (ev):

     3.7415   3.7622   4.0267   4.0272   4.3043   4.3565   4.8620   4.8946
     5.6742   5.6742   6.9633   7.1462  10.5295  10.5301  14.7112

          k = 0.0750 0.9750 0.0000     band energies (ev):

     3.7303   3.7703   4.0244   4.0280   4.2847   4.3836   4.8415   4.9070
     5.6776   5.6776   6.8861   7.2521  10.4567  10.4615  14.8270

          k = 0.1125 0.9625 0.0000     band energies (ev):

     3.7198   3.7758   4.0178   4.0298   4.2745   4.4091   4.8183   4.9172
     5.6830   5.6831   6.8178   7.3669  10.3434  10.3592  15.0175

          k = 0.1500 0.9500 0.0000     band energies (ev):

     3.7104   3.7783   4.0053   4.0328   4.2763   4.4320   4.7925   4.9251
     5.6901   5.6901   6.7579   7.4890  10.1997  10.2360  15.2721

          k = 0.1875 0.9375 0.0000     band energies (ev):

     3.7028   3.7774   3.9876   4.0365   4.2909   4.4516   4.7645   4.9311
     5.6982   5.6984   6.7060   7.6154  10.0358  10.1057  15.5803

          k = 0.2250 0.9250 0.0000     band energies (ev):

     3.6974   3.7729   3.9672   4.0410   4.3164   4.4673   4.7350   4.9351
     5.7071   5.7075   6.6616   7.7410   9.8605   9.9816  15.9329

          k = 0.2625 0.9125 0.0000     band energies (ev):

     3.6945   3.7646   3.9470   4.0458   4.3504   4.4782   4.7055   4.9373
     5.7160   5.7169   6.6247   7.8581   9.6808   9.8779  16.3225

          k = 0.3000 0.9000 0.0000     band energies (ev):

     3.6944   3.7529   3.9292   4.0506   4.3908   4.4827   4.6780   4.9375
     5.7244   5.7264   6.5954   7.9559   9.5022   9.8098  16.7433

          k = 0.3375 0.8875 0.0000     band energies (ev):

     3.6973   3.7385   3.9150   4.0553   4.4355   4.4786   4.6557   4.9357
     5.7320   5.7357   6.5741   8.0224   9.3286   9.7918  17.1905

          k = 0.3750 0.8750 0.0000     band energies (ev):

     3.7034   3.7227   3.9044   4.0593   4.4638   4.4828   4.6414   4.9317
     5.7381   5.7445   6.5614   8.0488   9.1631   9.8344  17.5862

          k = 0.4125 0.8625 0.0000     band energies (ev):

     3.7067   3.7127   3.8972   4.0623   4.4389   4.5310   4.6357   4.9256
     5.7424   5.7529   6.5583   8.0349   9.0081   9.9380  17.9130

          k = 0.4500 0.8500 0.0000     band energies (ev):

     3.6918   3.7252   3.8929   4.0637   4.4070   4.5785   4.6367   4.9172
     5.7445   5.7605   6.5655   7.9885   8.8653  10.0939  18.0074

          k = 0.4875 0.8375 0.0000     band energies (ev):

     3.6787   3.7410   3.8911   4.0627   4.3719   4.6237   4.6420   4.9066
     5.7444   5.7675   6.5840   7.9207   8.7363  10.2889  17.7478

          k = 0.5250 0.8250 0.0000     band energies (ev):

     3.6679   3.7598   3.8916   4.0583   4.3371   4.6500   4.6647   4.8941
     5.7420   5.7736   6.6144   7.8416   8.6226  10.5093  17.2948

          k = 0.5625 0.8125 0.0000     band energies (ev):

     3.6597   3.7816   3.8944   4.0493   4.3056   4.6597   4.6995   4.8805
     5.7377   5.7789   6.6567   7.7585   8.5255  10.7417  16.7949

          k = 0.6000 0.8000 0.0000     band energies (ev):

     3.6541   3.8056   3.8992   4.0347   4.2799   4.6705   4.7254   4.8675
     5.7319   5.7831   6.7102   7.6766   8.4468  10.9713  16.3074

          k = 0.6375 0.7875 0.0000     band energies (ev):

     3.6511   3.8311   3.9062   4.0145   4.2616   4.6822   4.7389   4.8581
     5.7254   5.7863   6.7730   7.5992   8.3888  11.1797  15.8650

          k = 0.6750 0.7750 0.0000     band energies (ev):

     3.6504   3.8560   3.9151   3.9912   4.2513   4.6943   4.7370   4.8551
     5.7188   5.7883   6.8422   7.5285   8.3541  11.3420  15.4975

          k = 0.7125 0.7625 0.0000     band energies (ev):

     3.6519   3.8748   3.9258   3.9708   4.2484   4.7068   4.7217   4.8567
     5.7132   5.7889   6.9137   7.4661   8.3466  11.4271  15.2384

          k = 0.7500 0.7500 0.0000     band energies (ev):

     3.6553   3.8757   3.9381   3.9660   4.2526   4.6976   4.7193   4.8588
     5.7093   5.7882   6.9830   7.4129   8.3701  11.4058  15.1180

          k = 0.7125 0.7125 0.0000     band energies (ev):

     3.6392   3.8970   3.9095   3.9469   4.2281   4.6819   4.7778   4.8555
     5.7176   5.7855   6.7279   7.5778   8.3368  11.6607  15.2637

          k = 0.6750 0.6750 0.0000     band energies (ev):

     3.6063   3.8578   3.9260   3.9448   4.2012   4.6448   4.8531   4.8535
     5.7255   5.7686   6.4111   7.7832   8.4385  11.9415  15.4318

          k = 0.6375 0.6375 0.0000     band energies (ev):

     3.5357   3.8349   3.9041   3.9805   4.1725   4.6089   4.8530   4.9194
     5.7325   5.7380   6.0964   8.0292   8.6247  12.2454  15.6230

          k = 0.6000 0.6000 0.0000     band energies (ev):

     3.4152   3.8341   3.8821   4.0156   4.1427   4.5741   4.8543   4.9704
     5.6958   5.7383   5.8240   8.3147   8.8688  12.5698  15.8377

          k = 0.5625 0.5625 0.0000     band energies (ev):

     3.2469   3.8491   3.8609   4.0489   4.1128   4.5405   4.8577   4.9963
     5.6206   5.6443   5.7428   8.6382   9.1588  12.9115  16.0767

          k = 0.5250 0.5250 0.0000     band energies (ev):

     3.0391   3.8414   3.8726   4.0752   4.0876   4.5078   4.8634   4.9866
     5.5021   5.5862   5.7455   8.9979   9.4884  13.2671  16.3403

          k = 0.4875 0.4875 0.0000     band energies (ev):

     2.8027   3.8246   3.8996   4.0531   4.1083   4.4755   4.8713   4.9467
     5.4598   5.5240   5.7464   9.3921   9.8541  13.6328  16.6286

          k = 0.4500 0.4500 0.0000     band energies (ev):

     2.5503   3.8112   3.9268   4.0267   4.1305   4.4432   4.8815   4.9009
     5.4600   5.4624   5.7455   9.8193  10.2533  14.0036  16.9415

          k = 0.4125 0.4125 0.0000     band energies (ev):

     2.2935   3.8018   3.9513   4.0024   4.1476   4.4105   4.8665   4.8939
     5.3963   5.4842   5.7426  10.2781  10.6841  14.3736  17.2783

          k = 0.3750 0.3750 0.0000     band energies (ev):

     2.0418   3.7969   3.9712   3.9811   4.1586   4.3770   4.8491   4.9082
     5.3350   5.5124   5.7379  10.7670  11.1448  14.7352  17.6373

          k = 0.3375 0.3375 0.0000     band energies (ev):

     1.8020   3.7969   3.9633   3.9857   4.1631   4.3425   4.8483   4.9241
     5.2776   5.5415   5.7315  11.2845  11.6339  15.0790  18.0148

          k = 0.3000 0.3000 0.0000     band energies (ev):

     1.5793   3.8018   3.9493   3.9946   4.1609   4.3068   4.8612   4.9411
     5.2256   5.5687   5.7236  11.8292  12.1495  15.3944  18.3100

          k = 0.2625 0.2625 0.0000     band energies (ev):

     1.3774   3.8116   3.9396   3.9988   4.1523   4.2700   4.8840   4.9589
     5.1799   5.5929   5.7146  12.3993  12.6898  15.6708  18.0845

          k = 0.2250 0.2250 0.0000     band energies (ev):

     1.1987   3.8263   3.9343   3.9994   4.1380   4.2320   4.9131   4.9766
     5.1410   5.6136   5.7049  12.9926  13.2523  15.8999  17.8883

          k = 0.1875 0.1875 0.0000     band energies (ev):

     1.0451   3.8455   3.9336   3.9976   4.1189   4.1932   4.9445   4.9937
     5.1090   5.6305   5.6950  13.6061  13.8335  16.0783  17.7216

          k = 0.1500 0.1500 0.0000     band energies (ev):

     0.9180   3.8689   3.9376   3.9946   4.0963   4.1538   4.9752   5.0092
     5.0837   5.6437   5.6856  14.2353  14.4281  16.2084  17.5847

          k = 0.1125 0.1125 0.0000     band energies (ev):

     0.8183   3.8962   3.9459   3.9913   4.0717   4.1141   5.0022   5.0225
     5.0647   5.6535   5.6773  14.8726  15.0267  16.2972  17.4779

          k = 0.0750 0.0750 0.0000     band energies (ev):

     0.7466   3.9267   3.9585   3.9885   4.0466   4.0748   5.0233   5.0326
     5.0515   5.6601   5.6708  15.5022  15.6105  16.3531  17.4015

          k = 0.0375 0.0375 0.0000     band energies (ev):

     0.7034   3.9596   3.9741   3.9866   4.0231   4.0367   5.0367   5.0390
     5.0438   5.6639   5.6666  16.0795  16.1293  16.3834  17.3555

          k = 0.0000 0.0000 0.0000     band energies (ev):

     0.6890   3.9860   3.9860   3.9860   4.0085   4.0085   5.0412   5.0412
     5.0412   5.6652   5.6652  16.3929  16.3929  16.3929  17.3402

          k = 0.0250 0.0250 0.0250     band energies (ev):

     0.6986   3.9709   3.9709   3.9861   4.0252   4.0252   5.0392   5.0408
     5.0408   5.6652   5.6652  16.1162  16.3228  16.3228  17.4162

          k = 0.0500 0.0500 0.0500     band energies (ev):

     0.7274   3.9503   3.9503   3.9867   4.0506   4.0506   5.0332   5.0397
     5.0397   5.6654   5.6654  15.5716  16.1570  16.1570  17.5988

          k = 0.0750 0.0750 0.0750     band energies (ev):

     0.7753   3.9312   3.9312   3.9877   4.0773   4.0773   5.0235   5.0381
     5.0381   5.6657   5.6657  14.9551  15.9534  15.9534  17.8210

          k = 0.1000 0.1000 0.1000     band energies (ev):

     0.8420   3.9146   3.9146   3.9892   4.1040   4.1040   5.0102   5.0365
     5.0365   5.6658   5.6658  14.3165  15.7393  15.7393  17.8354

          k = 0.1250 0.1250 0.1250     band energies (ev):

     0.9272   3.9008   3.9008   3.9913   4.1298   4.1298   4.9940   5.0355
     5.0355   5.6657   5.6657  13.6740  15.5261  15.5261  17.8064

          k = 0.1500 0.1500 0.1500     band energies (ev):

     1.0304   3.8900   3.8900   3.9943   4.1537   4.1537   4.9754   5.0358
     5.0358   5.6652   5.6652  13.0362  15.3191  15.3191  17.7604

          k = 0.1750 0.1750 0.1750     band energies (ev):

     1.1511   3.8822   3.8822   3.9982   4.1748   4.1748   4.9552   5.0381
     5.0381   5.6640   5.6640  12.4083  15.1209  15.1209  17.7107

          k = 0.2000 0.2000 0.2000     band energies (ev):

     1.2884   3.8776   3.8776   4.0031   4.1922   4.1922   4.9346   5.0431
     5.0431   5.6621   5.6621  11.7932  14.9333  14.9333  17.6643

          k = 0.2250 0.2250 0.2250     band energies (ev):

     1.4412   3.8761   3.8761   4.0091   4.2051   4.2051   4.9147   5.0515
     5.0515   5.6592   5.6592  11.1933  14.7574  14.7574  17.6248

          k = 0.2500 0.2500 0.2500     band energies (ev):

     1.6079   3.8777   3.8777   4.0161   4.2130   4.2130   4.8974   5.0635
     5.0635   5.6551   5.6551  10.6103  14.5941  14.5941  17.5941

          k = 0.2750 0.2750 0.2750     band energies (ev):

     1.7866   3.8823   3.8823   4.0237   4.2156   4.2156   4.8851   5.0793
     5.0793   5.6498   5.6498  10.0460  14.4441  14.4441  17.5733

          k = 0.3000 0.3000 0.3000     band energies (ev):

     1.9744   3.8898   3.8898   4.0316   4.2130   4.2130   4.8808   5.0985
     5.0985   5.6432   5.6432   9.5019  14.3079  14.3079  17.5629

          k = 0.3250 0.3250 0.3250     band energies (ev):

     2.1676   3.9000   3.9000   4.0389   4.2056   4.2056   4.8885   5.1204
     5.1204   5.6354   5.6354   8.9797  14.1862  14.1862  17.5631

          k = 0.3500 0.3500 0.3500     band energies (ev):

     2.3610   3.9126   3.9126   4.0447   4.1941   4.1941   4.9131   5.1440
     5.1440   5.6266   5.6266   8.4817  14.0795  14.0795  17.5738

          k = 0.3750 0.3750 0.3750     band energies (ev):

     2.5479   3.9271   3.9271   4.0478   4.1792   4.1792   4.9604   5.1681
     5.1681   5.6170   5.6170   8.0108  13.9883  13.9883  17.5944

          k = 0.4000 0.4000 0.4000     band energies (ev):

     2.7201   3.9431   3.9431   4.0477   4.1622   4.1622   5.0356   5.1912
     5.1912   5.6071   5.6071   7.5713  13.9130  13.9130  17.6238

          k = 0.4250 0.4250 0.4250     band energies (ev):

     2.8681   3.9596   3.9596   4.0445   4.1443   4.1443   5.1413   5.2118
     5.2118   5.5978   5.5978   7.1707  13.8539  13.8539  17.6597

          k = 0.4500 0.4500 0.4500     band energies (ev):

     2.9823   3.9752   3.9752   4.0396   4.1275   4.1275   5.2282   5.2282
     5.2718   5.5899   5.5899   6.8233  13.8115  13.8115  17.6977

          k = 0.4750 0.4750 0.4750     band energies (ev):

     3.0544   3.9872   3.9872   4.0352   4.1147   4.1147   5.2389   5.2389
     5.4008   5.5846   5.5846   6.5619  13.7860  13.7860  17.7293

          k = 0.5000 0.5000 0.5000     band energies (ev):

     3.0791   3.9919   3.9919   4.0334   4.1096   4.1096   5.2426   5.2426
     5.4618   5.5827   5.5827   6.4564  13.7775  13.7775  17.7421

     Writing output data file Cu.save

     init_run     :      1.07s CPU      1.13s WALL (       1 calls)
     electrons    :     36.74s CPU     37.57s WALL (       1 calls)

     Called by init_run:
     wfcinit      :      0.00s CPU      0.00s WALL (       1 calls)
     potinit      :      0.35s CPU      0.36s WALL (       1 calls)

     Called by electrons:
     c_bands      :     36.73s CPU     37.56s WALL (       1 calls)
     v_of_rho     :      0.03s CPU      0.03s WALL (       1 calls)
     newd         :      0.05s CPU      0.05s WALL (       1 calls)

     Called by c_bands:
     init_us_2    :      0.07s CPU      0.07s WALL (      81 calls)
     cegterg      :     33.57s CPU     34.33s WALL (     130 calls)

     Called by *egterg:
     h_psi        :     28.20s CPU     28.85s WALL (    2061 calls)
     s_psi        :      0.82s CPU      0.82s WALL (    2061 calls)
     g_psi        :      0.28s CPU      0.29s WALL (    1850 calls)
     cdiaghg      :      2.34s CPU      2.36s WALL (    1931 calls)

     Called by h_psi:
     add_vuspsi   :      0.89s CPU      0.90s WALL (    2061 calls)

     General routines
     calbec       :      1.08s CPU      1.05s WALL (    2061 calls)
     fft          :      0.02s CPU      0.02s WALL (      12 calls)
     fftw         :     23.39s CPU     24.21s WALL (   34192 calls)
     davcio       :      0.02s CPU      0.02s WALL (      81 calls)

     Parallel routines
     fft_scatter  :      4.92s CPU      4.94s WALL (   34204 calls)

     PAW routines
     PAW_pot      :      0.31s CPU      0.33s WALL (       1 calls)

     PWSCF        :    39.03s CPU        39.97s WALL


   This run was terminated on:  22:26:28  11Jul2015            

=------------------------------------------------------------------------------=
   JOB DONE.
=------------------------------------------------------------------------------=
