
     Program DOS v.5.0.2 (svn rev. 9656) starts on  4Jan2016 at  0:36: 3 

     This program is part of the open-source Quantum ESPRESSO suite
     for quantum simulation of materials; please cite
         "P. Giannozzi et al., J. Phys.:Condens. Matter 21 395502 (2009);
          URL http://www.quantum-espresso.org", 
     in publications or presentations arising from this work. More details at
     http://www.quantum-espresso.org/quote.php

     Parallel version (MPI), running on     4 processors
     R & G space division:  proc/nbgrp/npool/nimage =       4

   Info: using nr1, nr2, nr3 values from input

   Info: using nr1s, nr2s, nr3s values from input

     IMPORTANT: XC functional enforced from input :
     Exchange-correlation      =  SLA  PW   PBX  PBC ( 1 4 3 4 0)
     EXX-fraction              =        0.00
     Any further DFT definition will be discarded
     Please, verify this is what you really want

               file Cu.pbe.UPF: wavefunction(s)  4S 3D renormalized

     Parallelization info
     --------------------
     sticks:   dense  smooth     PW     G-vecs:    dense   smooth      PW
     Min         250     250     73                 5217     5217     821
     Max         251     251     74                 5220     5220     823
     Sum        1003    1003    295                20875    20875    3287


     Check: negative/imaginary core charge=   -0.000072    0.000000

     Gaussian broadening (read from input): ngauss,degauss=   0    0.003000

