
     Program PWSCF v.5.0.2 (svn rev. 9656) starts on 26Jul2015 at  3:51:55 

     This program is part of the open-source Quantum ESPRESSO suite
     for quantum simulation of materials; please cite
         "P. Giannozzi et al., J. Phys.:Condens. Matter 21 395502 (2009);
          URL http://www.quantum-espresso.org", 
     in publications or presentations arising from this work. More details at
     http://www.quantum-espresso.org/quote.php

     Parallel version (MPI), running on     4 processors
     R & G space division:  proc/nbgrp/npool/nimage =       4

     Current dimensions of program PWSCF are:
     Max number of different atomic species (ntypx) = 10
     Max number of k-points (npk) =  40000
     Max angular momentum in pseudopotentials (lmaxx) =  3
     Waiting for input...
     Reading input from standard input
               file C.pbe-rrkjus.UPF: wavefunction(s)  2S 2P renormalized

     Subspace diagonalization in iterative solution of the eigenvalue problem:
     a serial algorithm will be used


     Parallelization info
     --------------------
     sticks:   dense  smooth     PW     G-vecs:    dense   smooth      PW
     Min         211     145     41                58589    34707    5583
     Max         212     146     44                58614    34766    5602
     Sum         847     583    169               234415   138983   22369



     bravais-lattice index     =            0
     lattice parameter (alat)  =       4.6500  a.u.
     unit-cell volume          =    1044.8904 (a.u.)^3
     number of atoms/cell      =            2
     number of atomic types    =            1
     number of electrons       =         8.00
     number of Kohn-Sham states=            8
     kinetic-energy cutoff     =      99.0000  Ry
     charge density cutoff     =     560.0000  Ry
     convergence threshold     =      1.0E-08
     mixing beta               =       0.7000
     number of iterations used =            8  plain     mixing
     Exchange-correlation      =  SLA  PW   PBE  PBE ( 1 4 3 4 0)
     EXX-fraction              =        0.00

     celldm(1)=   4.650000  celldm(2)=   0.000000  celldm(3)=   0.000000
     celldm(4)=   0.000000  celldm(5)=   0.000000  celldm(6)=   0.000000

     crystal axes: (cart. coord. in units of alat)
               a(1) = (   1.000000   0.000000   0.000000 )  
               a(2) = (   0.500000   0.866025   0.000000 )  
               a(3) = (   0.000000   0.000000  12.000000 )  

     reciprocal axes: (cart. coord. in units 2 pi/alat)
               b(1) = (  1.000000 -0.577350  0.000000 )  
               b(2) = (  0.000000  1.154701  0.000000 )  
               b(3) = (  0.000000  0.000000  0.083333 )  


     PseudoPot. # 1 for C  read from file:
     ./C.pbe-rrkjus.UPF
     MD5 check sum: 00fb224312de0c5b6853bd333518df6f
     Pseudo is Ultrasoft, Zval =  4.0
     Generated by new atomic code, or converted to UPF format
     Using radial grid of  627 points,  4 beta functions with: 
                l(1) =   0
                l(2) =   0
                l(3) =   1
                l(4) =   1
     Q(r) pseudized with 0 coefficients 


     atomic species   valence    mass     pseudopotential
        C              4.00    12.00000     C ( 1.00)

     24 Sym. Ops., with inversion, found (12 have fractional translation)



   Cartesian axes

     site n.     atom                  positions (alat units)
         1           C   tau(   1) = (   0.0000000   0.0000000   0.0000000  )
         2           C   tau(   2) = (   1.0000000   0.5773503   0.0000000  )

     number of k points=    12  gaussian smearing, width (Ry)=  0.0010
                       cart. coord. in units 2pi/alat
        k(    1) = (   0.0000000   0.0000000   0.0000000), wk =   0.0246914
        k(    2) = (   0.0000000   0.1283001   0.0000000), wk =   0.1481481
        k(    3) = (   0.0000000   0.2566001   0.0000000), wk =   0.1481481
        k(    4) = (   0.0000000   0.3849002   0.0000000), wk =   0.1481481
        k(    5) = (   0.0000000   0.5132002   0.0000000), wk =   0.1481481
        k(    6) = (   0.1111111   0.1924501   0.0000000), wk =   0.1481481
        k(    7) = (   0.1111111   0.3207502   0.0000000), wk =   0.2962963
        k(    8) = (   0.1111111   0.4490502   0.0000000), wk =   0.2962963
        k(    9) = (   0.1111111  -0.5773503   0.0000000), wk =   0.1481481
        k(   10) = (   0.2222222   0.3849002   0.0000000), wk =   0.1481481
        k(   11) = (   0.2222222  -0.6415003   0.0000000), wk =   0.2962963
        k(   12) = (   0.3333333  -0.5773503   0.0000000), wk =   0.0493827

     Dense  grid:   234415 G-vectors     FFT dimensions: (  36,  36, 432)

     Smooth grid:   138983 G-vectors     FFT dimensions: (  30,  30, 360)

     Largest allocated arrays     est. size (Mb)     dimensions
        Kohn-Sham Wavefunctions         0.54 Mb     (   4436,    8)
        NL pseudopotentials             1.08 Mb     (   4436,   16)
        Each V/rho on FFT grid          2.14 Mb     ( 139968)
        Each G-vector array             0.45 Mb     (  58604)
        G-vector shells                 0.13 Mb     (  17181)
     Largest temporary arrays     est. size (Mb)     dimensions
        Auxiliary wavefunctions         2.17 Mb     (   4436,   32)
        Each subspace H/S matrix        0.02 Mb     (  32,  32)
        Each <psi_i|beta_j> matrix      0.00 Mb     (     16,    8)
        Arrays for rho mixing          17.09 Mb     ( 139968,   8)

     Initial potential from superposition of free atoms

     starting charge    7.99989, renormalised to    8.00000

     negative rho (up, down):  0.254E-04 0.000E+00
     Starting wfc are    8 randomized atomic wfcs

     total cpu time spent up to now is        4.9 secs

     per-process dynamical memory:    37.6 Mb

     Self-consistent Calculation

     iteration #  1     ecut=    99.00 Ry     beta=0.70
     Davidson diagonalization with overlap
     ethr =  1.00E-02,  avg # of iterations =  4.4

     negative rho (up, down):  0.177E-04 0.000E+00

     total cpu time spent up to now is       14.8 secs

     total energy              =     -22.75844843 Ry
     Harris-Foulkes estimate   =     -22.88295671 Ry
     estimated scf accuracy    <       0.20661579 Ry

     iteration #  2     ecut=    99.00 Ry     beta=0.70
     Davidson diagonalization with overlap
     ethr =  2.58E-03,  avg # of iterations =  5.2

     negative rho (up, down):  0.171E-04 0.000E+00

     total cpu time spent up to now is       25.0 secs

     total energy              =     -22.78960282 Ry
     Harris-Foulkes estimate   =     -22.78973741 Ry
     estimated scf accuracy    <       0.00250359 Ry

     iteration #  3     ecut=    99.00 Ry     beta=0.70
     Davidson diagonalization with overlap
     ethr =  3.13E-05,  avg # of iterations =  9.3

     negative rho (up, down):  0.186E-04 0.000E+00

     total cpu time spent up to now is       41.7 secs

     total energy              =     -22.78995337 Ry
     Harris-Foulkes estimate   =     -22.78992317 Ry
     estimated scf accuracy    <       0.00013898 Ry

     iteration #  4     ecut=    99.00 Ry     beta=0.70
     Davidson diagonalization with overlap
     ethr =  1.74E-06,  avg # of iterations =  4.7

     negative rho (up, down):  0.187E-04 0.000E+00

     total cpu time spent up to now is       52.1 secs

     total energy              =     -22.78995884 Ry
     Harris-Foulkes estimate   =     -22.78995802 Ry
     estimated scf accuracy    <       0.00000090 Ry

     iteration #  5     ecut=    99.00 Ry     beta=0.70
     Davidson diagonalization with overlap
     ethr =  1.13E-08,  avg # of iterations =  2.4

     negative rho (up, down):  0.187E-04 0.000E+00

     total cpu time spent up to now is       62.3 secs

     total energy              =     -22.78995913 Ry
     Harris-Foulkes estimate   =     -22.78995913 Ry
     estimated scf accuracy    <       0.00000003 Ry

     iteration #  6     ecut=    99.00 Ry     beta=0.70
     Davidson diagonalization with overlap
     ethr =  3.20E-10,  avg # of iterations =  2.0

     negative rho (up, down):  0.186E-04 0.000E+00

     total cpu time spent up to now is       71.6 secs

     End of self-consistent calculation

          k = 0.0000 0.0000 0.0000 ( 17511 PWs)   bands (ev):

   -22.4912 -10.6016  -6.0245  -6.0245   0.3035   1.0416   1.2090   1.5613

          k = 0.0000 0.1283 0.0000 ( 17481 PWs)   bands (ev):

   -22.1994 -10.2524  -7.1344  -6.5977   0.7010   1.4457   1.6176   1.9678

          k = 0.0000 0.2566 0.0000 ( 17431 PWs)   bands (ev):

   -21.3296  -9.6758  -9.2230  -7.7538   1.8924   2.6524   2.8434   3.1847

          k = 0.0000 0.3849 0.0000 ( 17375 PWs)   bands (ev):

   -19.9029 -12.6020  -8.7748  -7.5939   1.9772   3.8614   4.6831   4.8232

          k = 0.0000 0.5132 0.0000 ( 17358 PWs)   bands (ev):

   -17.9946 -15.3472  -9.3388  -5.7454  -0.7263   4.5365   6.6300   7.4633

          k = 0.1111 0.1925 0.0000 ( 17361 PWs)   bands (ev):

   -21.6186  -9.5624  -8.6842  -7.7427   1.4963   2.2522   2.4348   2.7801

          k = 0.1111 0.3208 0.0000 ( 17414 PWs)   bands (ev):

   -20.4703 -11.1286  -9.1255  -8.2234   3.0826   3.2314   3.8723   4.0693

          k = 0.1111 0.4491 0.0000 ( 17348 PWs)   bands (ev):

   -18.7921 -13.8869 -10.0052  -6.3913   0.3826   5.4224   5.9056   6.2465

          k = 0.1111-0.5774 0.0000 ( 17364 PWs)   bands (ev):

   -17.0422 -16.0364 -10.3048  -5.0516  -1.3456   5.7305   8.4413   8.6130

          k = 0.2222 0.3849 0.0000 ( 17411 PWs)   bands (ev):

   -19.0680 -12.6386 -11.1395  -6.6377   1.0117   5.0526   5.8111   6.1123

          k = 0.2222-0.6415 0.0000 ( 17335 PWs)   bands (ev):

   -17.2152 -14.7543 -12.1362  -4.7569  -1.2323   7.7314   7.9484   8.5919

          k = 0.3333-0.5774 0.0000 ( 17322 PWs)   bands (ev):

   -15.5522 -15.5522 -13.5625  -2.9487  -2.9487   7.6897   9.9570   9.9570

     the Fermi energy is    -2.9487 ev

!    total energy              =     -22.78995914 Ry
     Harris-Foulkes estimate   =     -22.78995914 Ry
     estimated scf accuracy    <          6.9E-10 Ry

     The total energy is the sum of the following terms:

     one-electron contribution =    -353.75991839 Ry
     hartree contribution      =     177.89032927 Ry
     xc contribution           =      -7.02458358 Ry
     ewald contribution        =     160.10424143 Ry
     smearing contrib. (-TS)   =      -0.00002786 Ry

     convergence has been achieved in   6 iterations

     Writing output data file graphene.save

     init_run     :      4.25s CPU      4.83s WALL (       1 calls)
     electrons    :     45.44s CPU     66.71s WALL (       1 calls)

     Called by init_run:
     wfcinit      :      1.93s CPU      2.12s WALL (       1 calls)
     potinit      :      1.05s CPU      1.16s WALL (       1 calls)

     Called by electrons:
     c_bands      :     34.02s CPU     49.55s WALL (       6 calls)
     sum_band     :      7.47s CPU     11.31s WALL (       6 calls)
     v_of_rho     :      1.91s CPU      2.92s WALL (       7 calls)
     newd         :      1.69s CPU      2.20s WALL (       7 calls)
     mix_rho      :      0.26s CPU      0.39s WALL (       6 calls)

     Called by c_bands:
     init_us_2    :      0.49s CPU      0.60s WALL (     156 calls)
     cegterg      :     33.32s CPU     48.60s WALL (      72 calls)

     Called by *egterg:
     h_psi        :     31.90s CPU     45.84s WALL (     420 calls)
     s_psi        :      0.39s CPU      0.41s WALL (     420 calls)
     g_psi        :      0.19s CPU      0.22s WALL (     336 calls)
     cdiaghg      :      0.21s CPU      0.35s WALL (     408 calls)

     Called by h_psi:
     add_vuspsi   :      0.40s CPU      0.44s WALL (     420 calls)

     General routines
     calbec       :      0.60s CPU      1.28s WALL (     492 calls)
     fft          :      1.68s CPU      2.79s WALL (     107 calls)
     ffts         :      0.14s CPU      0.23s WALL (      13 calls)
     fftw         :     31.62s CPU     47.13s WALL (    4330 calls)
     interpolate  :      0.39s CPU      0.58s WALL (      13 calls)
     davcio       :      0.09s CPU      0.16s WALL (     228 calls)

     Parallel routines
     fft_scatter  :     10.13s CPU     23.18s WALL (    4450 calls)

     PWSCF        :  0m49.97s CPU     1m11.95s WALL


   This run was terminated on:   3:53: 7  26Jul2015            

=------------------------------------------------------------------------------=
   JOB DONE.
=------------------------------------------------------------------------------=
