
     Program PWSCF v.5.0.2 (svn rev. 9656) starts on 26Jul2015 at  3: 7:35 

     This program is part of the open-source Quantum ESPRESSO suite
     for quantum simulation of materials; please cite
         "P. Giannozzi et al., J. Phys.:Condens. Matter 21 395502 (2009);
          URL http://www.quantum-espresso.org", 
     in publications or presentations arising from this work. More details at
     http://www.quantum-espresso.org/quote.php

     Parallel version (MPI), running on     4 processors
     R & G space division:  proc/nbgrp/npool/nimage =       4

     Current dimensions of program PWSCF are:
     Max number of different atomic species (ntypx) = 10
     Max number of k-points (npk) =  40000
     Max angular momentum in pseudopotentials (lmaxx) =  3
     Waiting for input...
     Reading input from standard input
               file C.pbe-rrkjus.UPF: wavefunction(s)  2S 2P renormalized

     Subspace diagonalization in iterative solution of the eigenvalue problem:
     a serial algorithm will be used


     Parallelization info
     --------------------
     sticks:   dense  smooth     PW     G-vecs:    dense   smooth      PW
     Min         211     127     37                58589    27680    4639
     Max         212     128     38                58614    27712    4688
     Sum         847     511    151               234415   110781   18691



     bravais-lattice index     =            0
     lattice parameter (alat)  =       4.6500  a.u.
     unit-cell volume          =    1044.8904 (a.u.)^3
     number of atoms/cell      =            2
     number of atomic types    =            1
     number of electrons       =         8.00
     number of Kohn-Sham states=            8
     kinetic-energy cutoff     =      85.0000  Ry
     charge density cutoff     =     560.0000  Ry
     convergence threshold     =      1.0E-08
     mixing beta               =       0.7000
     number of iterations used =            8  plain     mixing
     Exchange-correlation      =  SLA  PW   PBE  PBE ( 1 4 3 4 0)
     EXX-fraction              =        0.00

     celldm(1)=   4.650000  celldm(2)=   0.000000  celldm(3)=   0.000000
     celldm(4)=   0.000000  celldm(5)=   0.000000  celldm(6)=   0.000000

     crystal axes: (cart. coord. in units of alat)
               a(1) = (   1.000000   0.000000   0.000000 )  
               a(2) = (   0.500000   0.866025   0.000000 )  
               a(3) = (   0.000000   0.000000  12.000000 )  

     reciprocal axes: (cart. coord. in units 2 pi/alat)
               b(1) = (  1.000000 -0.577350  0.000000 )  
               b(2) = (  0.000000  1.154701  0.000000 )  
               b(3) = (  0.000000  0.000000  0.083333 )  


     PseudoPot. # 1 for C  read from file:
     ./C.pbe-rrkjus.UPF
     MD5 check sum: 00fb224312de0c5b6853bd333518df6f
     Pseudo is Ultrasoft, Zval =  4.0
     Generated by new atomic code, or converted to UPF format
     Using radial grid of  627 points,  4 beta functions with: 
                l(1) =   0
                l(2) =   0
                l(3) =   1
                l(4) =   1
     Q(r) pseudized with 0 coefficients 


     atomic species   valence    mass     pseudopotential
        C              4.00    12.00000     C ( 1.00)

     24 Sym. Ops., with inversion, found (12 have fractional translation)



   Cartesian axes

     site n.     atom                  positions (alat units)
         1           C   tau(   1) = (   0.0000000   0.0000000   0.0000000  )
         2           C   tau(   2) = (   1.0000000   0.5773503   0.0000000  )

     number of k points=    14  gaussian smearing, width (Ry)=  0.0010
                       cart. coord. in units 2pi/alat
        k(    1) = (   0.0000000   0.0000000   0.0000000), wk =   0.0200000
        k(    2) = (   0.0000000   0.1154701   0.0000000), wk =   0.1200000
        k(    3) = (   0.0000000   0.2309401   0.0000000), wk =   0.1200000
        k(    4) = (   0.0000000   0.3464102   0.0000000), wk =   0.1200000
        k(    5) = (   0.0000000   0.4618802   0.0000000), wk =   0.1200000
        k(    6) = (   0.0000000  -0.5773503   0.0000000), wk =   0.0600000
        k(    7) = (   0.1000000   0.1732051   0.0000000), wk =   0.1200000
        k(    8) = (   0.1000000   0.2886751   0.0000000), wk =   0.2400000
        k(    9) = (   0.1000000   0.4041452   0.0000000), wk =   0.2400000
        k(   10) = (   0.1000000  -0.6350853   0.0000000), wk =   0.2400000
        k(   11) = (   0.2000000   0.3464102   0.0000000), wk =   0.1200000
        k(   12) = (   0.2000000  -0.6928203   0.0000000), wk =   0.2400000
        k(   13) = (   0.2000000  -0.5773503   0.0000000), wk =   0.1200000
        k(   14) = (   0.3000000  -0.6350853   0.0000000), wk =   0.1200000

     Dense  grid:   234415 G-vectors     FFT dimensions: (  36,  36, 432)

     Smooth grid:   110781 G-vectors     FFT dimensions: (  27,  27, 360)

     Largest allocated arrays     est. size (Mb)     dimensions
        Kohn-Sham Wavefunctions         0.43 Mb     (   3518,    8)
        NL pseudopotentials             0.86 Mb     (   3518,   16)
        Each V/rho on FFT grid          2.14 Mb     ( 139968)
        Each G-vector array             0.45 Mb     (  58604)
        G-vector shells                 0.13 Mb     (  17080)
     Largest temporary arrays     est. size (Mb)     dimensions
        Auxiliary wavefunctions         1.72 Mb     (   3518,   32)
        Each subspace H/S matrix        0.02 Mb     (  32,  32)
        Each <psi_i|beta_j> matrix      0.00 Mb     (     16,    8)
        Arrays for rho mixing          17.09 Mb     ( 139968,   8)

     Initial potential from superposition of free atoms

     starting charge    7.99989, renormalised to    8.00000

     negative rho (up, down):  0.254E-04 0.000E+00
     Starting wfc are    8 randomized atomic wfcs

     total cpu time spent up to now is        4.3 secs

     per-process dynamical memory:    30.6 Mb

     Self-consistent Calculation

     iteration #  1     ecut=    85.00 Ry     beta=0.70
     Davidson diagonalization with overlap
     ethr =  1.00E-02,  avg # of iterations =  5.0

     negative rho (up, down):  0.179E-04 0.000E+00

     total cpu time spent up to now is       15.3 secs

     total energy              =     -22.76006333 Ry
     Harris-Foulkes estimate   =     -22.88447226 Ry
     estimated scf accuracy    <       0.20647777 Ry

     iteration #  2     ecut=    85.00 Ry     beta=0.70
     Davidson diagonalization with overlap
     ethr =  2.58E-03,  avg # of iterations =  5.8

     negative rho (up, down):  0.163E-04 0.000E+00

     total cpu time spent up to now is       25.9 secs

     total energy              =     -22.79117973 Ry
     Harris-Foulkes estimate   =     -22.79131321 Ry
     estimated scf accuracy    <       0.00248185 Ry

     iteration #  3     ecut=    85.00 Ry     beta=0.70
     Davidson diagonalization with overlap
     ethr =  3.10E-05,  avg # of iterations = 11.1

     negative rho (up, down):  0.185E-04 0.000E+00

     total cpu time spent up to now is       41.3 secs

     total energy              =     -22.79151161 Ry
     Harris-Foulkes estimate   =     -22.79148193 Ry
     estimated scf accuracy    <       0.00014217 Ry

     iteration #  4     ecut=    85.00 Ry     beta=0.70
     Davidson diagonalization with overlap
     ethr =  1.78E-06,  avg # of iterations =  4.4

     negative rho (up, down):  0.187E-04 0.000E+00

     total cpu time spent up to now is       51.1 secs

     total energy              =     -22.79151717 Ry
     Harris-Foulkes estimate   =     -22.79151641 Ry
     estimated scf accuracy    <       0.00000080 Ry

     iteration #  5     ecut=    85.00 Ry     beta=0.70
     Davidson diagonalization with overlap
     ethr =  9.97E-09,  avg # of iterations =  2.5

     negative rho (up, down):  0.187E-04 0.000E+00

     total cpu time spent up to now is       60.3 secs

     total energy              =     -22.79151749 Ry
     Harris-Foulkes estimate   =     -22.79151748 Ry
     estimated scf accuracy    <       0.00000002 Ry

     iteration #  6     ecut=    85.00 Ry     beta=0.70
     Davidson diagonalization with overlap
     ethr =  3.01E-10,  avg # of iterations =  2.0

     negative rho (up, down):  0.186E-04 0.000E+00

     total cpu time spent up to now is       68.6 secs

     End of self-consistent calculation

          k = 0.0000 0.0000 0.0000 ( 13771 PWs)   bands (ev):

   -22.4921 -10.6023  -6.0255  -6.0255   0.3035   1.0417   1.2090   1.5614

          k = 0.0000 0.1155 0.0000 ( 13752 PWs)   bands (ev):

   -22.2556 -10.3193  -6.9386  -6.5000   0.6255   1.3690   1.5400   1.8906

          k = 0.0000 0.2309 0.0000 ( 13768 PWs)   bands (ev):

   -21.5500  -9.4817  -9.1124  -7.5179   1.5909   2.3481   2.5329   2.8771

          k = 0.0000 0.3464 0.0000 ( 13856 PWs)   bands (ev):

   -20.3880 -11.7244  -8.5086  -8.1359   2.8940   3.1928   4.0081   4.1874

          k = 0.0000 0.4619 0.0000 ( 13868 PWs)   bands (ev):

   -18.8032 -14.3010  -9.1788  -6.4463   0.2226   4.6046   5.4557   6.2612

          k = 0.0000-0.5774 0.0000 ( 13870 PWs)   bands (ev):

   -17.2302 -16.2215  -9.4124  -5.3196  -1.2676   4.5010   8.1869   8.3398

          k = 0.1000 0.1732 0.0000 ( 13797 PWs)   bands (ev):

   -21.7846  -9.7586  -8.2828  -7.4484   1.2697   2.0227   2.2020   2.5487

          k = 0.1000 0.2887 0.0000 ( 13820 PWs)   bands (ev):

   -20.8508 -10.4394  -8.6936  -8.6626   2.5559   3.3174   3.5259   3.8506

          k = 0.1000 0.4041 0.0000 ( 13825 PWs)   bands (ev):

   -19.4755 -12.9484  -9.6114  -7.1128   1.3919   4.4705   5.2761   5.5104

          k = 0.1000-0.6351 0.0000 ( 13870 PWs)   bands (ev):

   -17.7351 -15.3318 -10.0884  -5.4653  -0.8835   5.5376   7.0160   7.8024

          k = 0.2000 0.3464 0.0000 ( 13797 PWs)   bands (ev):

   -19.7031 -11.9061 -10.4566  -7.3457   1.9671   4.1576   4.9307   5.1807

          k = 0.2000-0.6928 0.0000 ( 13837 PWs)   bands (ev):

   -18.1480 -13.9007 -11.5282  -5.6684  -0.2388   6.3681   7.0574   7.4966

          k = 0.2000-0.5774 0.0000 ( 13859 PWs)   bands (ev):

   -16.6245 -15.6599 -11.8317  -4.4572  -1.6467   7.9218   8.4063   8.9787

          k = 0.3000-0.6351 0.0000 ( 13865 PWs)   bands (ev):

   -16.5135 -14.8219 -13.1729  -3.9787  -1.9348   7.8046   8.7516  10.0945

     the Fermi energy is    -2.1187 ev

!    total energy              =     -22.79151749 Ry
     Harris-Foulkes estimate   =     -22.79151749 Ry
     estimated scf accuracy    <          5.7E-10 Ry

     The total energy is the sum of the following terms:

     one-electron contribution =    -353.76103558 Ry
     hartree contribution      =     177.88980277 Ry
     xc contribution           =      -7.02452611 Ry
     ewald contribution        =     160.10424143 Ry
     smearing contrib. (-TS)   =      -0.00000000 Ry

     convergence has been achieved in   6 iterations

     Writing output data file graphene.save

     init_run     :      3.98s CPU      4.19s WALL (       1 calls)
     electrons    :     58.13s CPU     64.32s WALL (       1 calls)

     Called by init_run:
     wfcinit      :      1.65s CPU      1.70s WALL (       1 calls)
     potinit      :      1.07s CPU      1.14s WALL (       1 calls)

     Called by electrons:
     c_bands      :     41.72s CPU     45.61s WALL (       6 calls)
     sum_band     :     10.27s CPU     11.75s WALL (       6 calls)
     v_of_rho     :      2.66s CPU      3.12s WALL (       7 calls)
     newd         :      2.97s CPU      3.21s WALL (       7 calls)
     mix_rho      :      0.40s CPU      0.48s WALL (       6 calls)

     Called by c_bands:
     init_us_2    :      0.50s CPU      0.68s WALL (     182 calls)
     cegterg      :     41.01s CPU     44.70s WALL (      84 calls)

     Called by *egterg:
     h_psi        :     38.12s CPU     41.47s WALL (     530 calls)
     s_psi        :      0.55s CPU      0.55s WALL (     530 calls)
     g_psi        :      0.18s CPU      0.20s WALL (     432 calls)
     cdiaghg      :      0.24s CPU      0.26s WALL (     516 calls)

     Called by h_psi:
     add_vuspsi   :      0.53s CPU      0.55s WALL (     530 calls)

     General routines
     calbec       :      0.88s CPU      0.96s WALL (     614 calls)
     fft          :      2.52s CPU      3.02s WALL (     107 calls)
     ffts         :      0.15s CPU      0.18s WALL (      13 calls)
     fftw         :     32.00s CPU     35.94s WALL (    5142 calls)
     interpolate  :      0.55s CPU      0.60s WALL (      13 calls)
     davcio       :      0.16s CPU      0.23s WALL (     266 calls)

     Parallel routines
     fft_scatter  :     15.88s CPU     19.59s WALL (    5262 calls)

     PWSCF        :  1m 2.38s CPU     1m 8.84s WALL


   This run was terminated on:   3: 8:44  26Jul2015            

=------------------------------------------------------------------------------=
   JOB DONE.
=------------------------------------------------------------------------------=
