
     Program PWSCF v.5.0.2 (svn rev. 9656) starts on 12Jul2015 at  2:17: 1 

     This program is part of the open-source Quantum ESPRESSO suite
     for quantum simulation of materials; please cite
         "P. Giannozzi et al., J. Phys.:Condens. Matter 21 395502 (2009);
          URL http://www.quantum-espresso.org", 
     in publications or presentations arising from this work. More details at
     http://www.quantum-espresso.org/quote.php

     Parallel version (MPI), running on     4 processors
     R & G space division:  proc/nbgrp/npool/nimage =       4

     Current dimensions of program PWSCF are:
     Max number of different atomic species (ntypx) = 10
     Max number of k-points (npk) =  40000
     Max angular momentum in pseudopotentials (lmaxx) =  3
     Waiting for input...
     Reading input from standard input
               file Al.pbe-n-kjpaw_psl.0.1.UPF: wavefunction(s)  3S renormalized

     Subspace diagonalization in iterative solution of the eigenvalue problem:
     a serial algorithm will be used


     Parallelization info
     --------------------
     sticks:   dense  smooth     PW     G-vecs:    dense   smooth      PW
     Min         148     148     46                 2429     2429     420
     Max         149     149     47                 2431     2431     423
     Sum         595     595    187                 9721     9721    1687



     bravais-lattice index     =            2
     lattice parameter (alat)  =       7.6300  a.u.
     unit-cell volume          =     111.0487 (a.u.)^3
     number of atoms/cell      =            1
     number of atomic types    =            1
     number of electrons       =         3.00
     number of Kohn-Sham states=            6
     kinetic-energy cutoff     =      75.0000  Ry
     charge density cutoff     =     300.0000  Ry
     convergence threshold     =      1.0E-07
     mixing beta               =       0.7000
     number of iterations used =            8  plain     mixing
     Exchange-correlation      =  SLA  PW   PBX  PBC ( 1 4 3 4 0)
     EXX-fraction              =        0.00

     celldm(1)=   7.630000  celldm(2)=   0.000000  celldm(3)=   0.000000
     celldm(4)=   0.000000  celldm(5)=   0.000000  celldm(6)=   0.000000

     crystal axes: (cart. coord. in units of alat)
               a(1) = (  -0.500000   0.000000   0.500000 )  
               a(2) = (   0.000000   0.500000   0.500000 )  
               a(3) = (  -0.500000   0.500000   0.000000 )  

     reciprocal axes: (cart. coord. in units 2 pi/alat)
               b(1) = ( -1.000000 -1.000000  1.000000 )  
               b(2) = (  1.000000  1.000000  1.000000 )  
               b(3) = ( -1.000000  1.000000 -1.000000 )  


     PseudoPot. # 1 for Al read from file:
     ./Al.pbe-n-kjpaw_psl.0.1.UPF
     MD5 check sum: 023d9faf819c76fc4df1f064efe7b7b2
     Pseudo is Projector augmented-wave + core cor, Zval =  3.0
     Generated using "atomic" code by A. Dal Corso  v.5.0.2 svn rev. 9415
     Shape of augmentation charge: PSQ
     Using radial grid of 1135 points,  4 beta functions with: 
                l(1) =   0
                l(2) =   0
                l(3) =   1
                l(4) =   1
     Q(r) pseudized with 0 coefficients 


     atomic species   valence    mass     pseudopotential
        Al             3.00    26.98154     Al( 1.00)

     48 Sym. Ops., with inversion, found



   Cartesian axes

     site n.     atom                  positions (alat units)
         1           Al  tau(   1) = (   0.0000000   0.0000000   0.0000000  )

     number of k points=    35  gaussian smearing, width (Ry)=  0.0030
                       cart. coord. in units 2pi/alat
        k(    1) = (   0.0000000   0.0000000   0.0000000), wk =   0.0027435
        k(    2) = (  -0.1111111   0.1111111  -0.1111111), wk =   0.0219479
        k(    3) = (  -0.2222222   0.2222222  -0.2222222), wk =   0.0219479
        k(    4) = (  -0.3333333   0.3333333  -0.3333333), wk =   0.0219479
        k(    5) = (  -0.4444444   0.4444444  -0.4444444), wk =   0.0219479
        k(    6) = (   0.0000000   0.2222222   0.0000000), wk =   0.0164609
        k(    7) = (  -0.1111111   0.3333333  -0.1111111), wk =   0.0658436
        k(    8) = (  -0.2222222   0.4444444  -0.2222222), wk =   0.0658436
        k(    9) = (  -0.3333333   0.5555556  -0.3333333), wk =   0.0658436
        k(   10) = (   0.5555556  -0.3333333   0.5555556), wk =   0.0658436
        k(   11) = (   0.4444444  -0.2222222   0.4444444), wk =   0.0658436
        k(   12) = (   0.3333333  -0.1111111   0.3333333), wk =   0.0658436
        k(   13) = (   0.2222222  -0.0000000   0.2222222), wk =   0.0329218
        k(   14) = (   0.0000000   0.4444444   0.0000000), wk =   0.0164609
        k(   15) = (  -0.1111111   0.5555556  -0.1111111), wk =   0.0658436
        k(   16) = (  -0.2222222   0.6666667  -0.2222222), wk =   0.0658436
        k(   17) = (   0.6666667  -0.2222222   0.6666667), wk =   0.0658436
        k(   18) = (   0.5555556  -0.1111111   0.5555556), wk =   0.0658436
        k(   19) = (   0.4444444   0.0000000   0.4444444), wk =   0.0329218
        k(   20) = (   0.0000000   0.6666667   0.0000000), wk =   0.0164609
        k(   21) = (  -0.1111111   0.7777778  -0.1111111), wk =   0.0658436
        k(   22) = (   0.7777778  -0.1111111   0.7777778), wk =   0.0658436
        k(   23) = (   0.6666667  -0.0000000   0.6666667), wk =   0.0329218
        k(   24) = (   0.0000000   0.8888889   0.0000000), wk =   0.0164609
        k(   25) = (   0.8888889   0.0000000   0.8888889), wk =   0.0329218
        k(   26) = (  -0.2222222   0.4444444   0.0000000), wk =   0.0658436
        k(   27) = (  -0.3333333   0.5555556  -0.1111111), wk =   0.1316872
        k(   28) = (   0.5555556  -0.3333333   0.7777778), wk =   0.1316872
        k(   29) = (  -0.2222222   0.6666667   0.0000000), wk =   0.0658436
        k(   30) = (   0.6666667  -0.2222222   0.8888889), wk =   0.1316872
        k(   31) = (   0.5555556  -0.1111111   0.7777778), wk =   0.1316872
        k(   32) = (   0.4444444   0.0000000   0.6666667), wk =   0.0658436
        k(   33) = (   0.7777778  -0.1111111   1.0000000), wk =   0.0658436
        k(   34) = (   0.6666667  -0.0000000   0.8888889), wk =   0.0658436
        k(   35) = (   0.5555556  -0.1111111   1.0000000), wk =   0.0658436

     Dense  grid:     9721 G-vectors     FFT dimensions: (  30,  30,  30)

     Largest allocated arrays     est. size (Mb)     dimensions
        Kohn-Sham Wavefunctions         0.03 Mb     (    316,    6)
        NL pseudopotentials             0.04 Mb     (    316,    8)
        Each V/rho on FFT grid          0.11 Mb     (   7200)
        Each G-vector array             0.02 Mb     (   2429)
        G-vector shells                 0.00 Mb     (    149)
     Largest temporary arrays     est. size (Mb)     dimensions
        Auxiliary wavefunctions         0.12 Mb     (    316,   24)
        Each subspace H/S matrix        0.01 Mb     (  24,  24)
        Each <psi_i|beta_j> matrix      0.00 Mb     (      8,    6)
        Arrays for rho mixing           0.88 Mb     (   7200,   8)

     Check: negative/imaginary core charge=   -0.000002    0.000000

     Initial potential from superposition of free atoms

     starting charge    2.99771, renormalised to    3.00000
     Starting wfc are    4 randomized atomic wfcs
     Checking if some PAW data can be deallocated... 

     total cpu time spent up to now is        1.3 secs

     per-process dynamical memory:     9.4 Mb

     Self-consistent Calculation

     iteration #  1     ecut=    75.00 Ry     beta=0.70
     Davidson diagonalization with overlap
     ethr =  1.00E-02,  avg # of iterations =  5.0

     Threshold (ethr) on eigenvalues was too large:
     Diagonalizing with lowered threshold

     Davidson diagonalization with overlap
     ethr =  1.94E-04,  avg # of iterations =  2.4

     total cpu time spent up to now is        4.4 secs

     total energy              =     -39.50078339 Ry
     Harris-Foulkes estimate   =     -39.50213848 Ry
     estimated scf accuracy    <       0.00551223 Ry

     iteration #  2     ecut=    75.00 Ry     beta=0.70
     Davidson diagonalization with overlap
     ethr =  1.84E-04,  avg # of iterations =  1.0

     total cpu time spent up to now is        5.4 secs

     total energy              =     -39.50074020 Ry
     Harris-Foulkes estimate   =     -39.50084453 Ry
     estimated scf accuracy    <       0.00040535 Ry

     iteration #  3     ecut=    75.00 Ry     beta=0.70
     Davidson diagonalization with overlap
     ethr =  1.35E-05,  avg # of iterations =  1.7

     total cpu time spent up to now is        6.5 secs

     total energy              =     -39.50076024 Ry
     Harris-Foulkes estimate   =     -39.50076079 Ry
     estimated scf accuracy    <       0.00000136 Ry

     iteration #  4     ecut=    75.00 Ry     beta=0.70
     Davidson diagonalization with overlap
     ethr =  4.55E-08,  avg # of iterations =  3.0

     total cpu time spent up to now is        7.7 secs

     total energy              =     -39.50076138 Ry
     Harris-Foulkes estimate   =     -39.50076142 Ry
     estimated scf accuracy    <       0.00000012 Ry

     iteration #  5     ecut=    75.00 Ry     beta=0.70
     Davidson diagonalization with overlap
     ethr =  3.88E-09,  avg # of iterations =  1.1

     total cpu time spent up to now is        8.8 secs

     End of self-consistent calculation

          k = 0.0000 0.0000 0.0000 (  1243 PWs)   bands (ev):

    -3.2239  20.5712  20.5712  22.0494  22.0495  22.0495

          k =-0.1111 0.1111-0.1111 (  1236 PWs)   bands (ev):

    -2.8879  16.8247  19.7436  19.7436  22.6951  23.3681

          k =-0.2222 0.2222-0.2222 (  1227 PWs)   bands (ev):

    -1.8846  12.4217  18.9697  18.9697  22.3660  23.2063

          k =-0.3333 0.3333-0.3333 (  1218 PWs)   bands (ev):

    -0.2278   8.4302  18.7159  18.7159  21.3103  21.3103

          k =-0.4444 0.4444-0.4444 (  1209 PWs)   bands (ev):

     2.0596   4.9645  19.0185  19.0185  19.8874  19.8874

          k = 0.0000 0.2222 0.0000 (  1227 PWs)   bands (ev):

    -2.7761  18.1810  18.1810  18.4460  21.1057  23.3085

          k =-0.1111 0.3333-0.1111 (  1231 PWs)   bands (ev):

    -1.9958  14.0678  17.1550  18.6174  20.5386  22.0522

          k =-0.2222 0.4444-0.2222 (  1228 PWs)   bands (ev):

    -0.5578   9.9662  16.6927  18.2113  18.4488  24.5026

          k =-0.3333 0.5556-0.3333 (  1210 PWs)   bands (ev):

     1.5181   6.3346  16.6266  16.7992  18.5224  22.8612

          k = 0.5556-0.3333 0.5556 (  1207 PWs)   bands (ev):

     3.2345   4.2261  15.5340  17.4769  19.2635  21.8227

          k = 0.4444-0.2222 0.4444 (  1214 PWs)   bands (ev):

     0.7570   7.4815  15.0387  18.7228  20.5842  21.3350

          k = 0.3333-0.1111 0.3333 (  1226 PWs)   bands (ev):

    -1.1091  11.2612  15.1645  20.4911  21.4023  22.4319

          k = 0.2222-0.0000 0.2222 (  1229 PWs)   bands (ev):

    -2.3297  15.0923  16.2626  21.4414  22.3029  23.4736

          k = 0.0000 0.4444 0.0000 (  1219 PWs)   bands (ev):

    -1.4410  15.9163  15.9163  15.9349  17.5760  19.3756

          k =-0.1111 0.5556-0.1111 (  1228 PWs)   bands (ev):

    -0.2284  12.0252  15.0700  15.2534  16.6998  20.3786

          k =-0.2222 0.6667-0.2222 (  1220 PWs)   bands (ev):

     1.6242   8.2991  13.1547  15.1642  16.8391  23.3948

          k = 0.6667-0.2222 0.6667 (  1212 PWs)   bands (ev):

     4.0744   5.0763  11.8401  15.6484  17.4331  25.1815

          k = 0.5556-0.1111 0.5556 (  1212 PWs)   bands (ev):

     2.3824   7.1132  11.1797  16.7070  18.6121  24.5193

          k = 0.4444 0.0000 0.4444 (  1215 PWs)   bands (ev):

     0.3200  10.1533  11.6665  18.3364  20.3436  24.8764

          k = 0.0000 0.6667 0.0000 (  1218 PWs)   bands (ev):

     0.7546  12.3197  14.1896  14.3941  14.3941  17.9163

          k =-0.1111 0.7778-0.1111 (  1223 PWs)   bands (ev):

     2.3729  10.1204  10.8430  14.1104  15.4411  19.2776

          k = 0.7778-0.1111 0.7778 (  1214 PWs)   bands (ev):

     4.5741   7.4326   8.7027  14.4004  16.0069  22.7127

          k = 0.6667-0.0000 0.6667 (  1220 PWs)   bands (ev):

     4.6200   6.8520   8.3315  15.2654  17.0321  26.6353

          k = 0.0000 0.8889 0.0000 (  1218 PWs)   bands (ev):

     3.7289   7.7985  13.3075  13.6331  13.6331  17.1196

          k = 0.8889 0.0000 0.8889 (  1214 PWs)   bands (ev):

     5.2061   6.5477  10.3958  13.7297  15.0154  18.8952

          k =-0.2222 0.4444 0.0000 (  1232 PWs)   bands (ev):

    -0.9987  12.6312  13.9936  17.9687  19.9841  21.7928

          k =-0.3333 0.5556-0.1111 (  1216 PWs)   bands (ev):

     0.6474   9.1945  13.1861  15.8944  20.4314  23.1341

          k = 0.5556-0.3333 0.7778 (  1215 PWs)   bands (ev):

     2.9178   5.7987  13.4138  14.4216  20.8149  21.8172

          k =-0.2222 0.6667 0.0000 (  1224 PWs)   bands (ev):

     1.1900  10.9809  12.2420  12.9351  18.4168  20.4846

          k = 0.6667-0.2222 0.8889 (  1211 PWs)   bands (ev):

     3.2315   7.9387  10.9557  12.0741  19.3149  23.1640

          k = 0.5556-0.1111 0.7778 (  1216 PWs)   bands (ev):

     4.9203   5.8670   9.9206  12.6929  20.1358  24.3639

          k = 0.4444 0.0000 0.6667 (  1209 PWs)   bands (ev):

     2.4884   8.5017  10.0056  13.9944  21.4259  23.2875

          k = 0.7778-0.1111 1.0000 (  1211 PWs)   bands (ev):

     4.1528   8.2095  10.1542  11.6553  17.6108  19.7618

          k = 0.6667-0.0000 0.8889 (  1207 PWs)   bands (ev):

     6.0285   7.2249   7.7349  11.6163  18.9236  22.8497

          k = 0.5556-0.1111 1.0000 (  1211 PWs)   bands (ev):

     5.4154   7.6765   8.9352   9.7929  22.5301  23.5631

     the Fermi energy is     7.9238 ev

!    total energy              =     -39.50076137 Ry
     Harris-Foulkes estimate   =     -39.50076139 Ry
     estimated scf accuracy    <       0.00000006 Ry

     total all-electron energy =      -485.643543 Ry

     The total energy is the sum of the following terms:

     one-electron contribution =       3.17108140 Ry
     hartree contribution      =       0.00586216 Ry
     xc contribution           =      -3.03183247 Ry
     ewald contribution        =      -5.40809419 Ry
     one-center paw contrib.   =     -34.23768084 Ry
     smearing contrib. (-TS)   =      -0.00009743 Ry

     convergence has been achieved in   5 iterations

     Writing output data file Al.save

     init_run     :      0.62s CPU      0.84s WALL (       1 calls)
     electrons    :      5.28s CPU      7.48s WALL (       1 calls)

     Called by init_run:
     wfcinit      :      0.25s CPU      0.34s WALL (       1 calls)
     potinit      :      0.07s CPU      0.10s WALL (       1 calls)

     Called by electrons:
     c_bands      :      4.03s CPU      5.74s WALL (       6 calls)
     sum_band     :      0.80s CPU      1.13s WALL (       6 calls)
     v_of_rho     :      0.08s CPU      0.11s WALL (       6 calls)
     newd         :      0.04s CPU      0.07s WALL (       6 calls)
     mix_rho      :      0.04s CPU      0.08s WALL (       6 calls)

     Called by c_bands:
     init_us_2    :      0.09s CPU      0.12s WALL (     455 calls)
     cegterg      :      3.95s CPU      5.63s WALL (     210 calls)

     Called by *egterg:
     h_psi        :      3.70s CPU      5.29s WALL (     740 calls)
     s_psi        :      0.02s CPU      0.02s WALL (     740 calls)
     g_psi        :      0.02s CPU      0.02s WALL (     495 calls)
     cdiaghg      :      0.21s CPU      0.22s WALL (     670 calls)

     Called by h_psi:
     add_vuspsi   :      0.02s CPU      0.03s WALL (     740 calls)

     General routines
     calbec       :      0.07s CPU      0.11s WALL (     950 calls)
     fft          :      0.06s CPU      0.13s WALL (      80 calls)
     fftw         :      4.09s CPU      5.82s WALL (    8114 calls)
     davcio       :      0.02s CPU      0.02s WALL (     665 calls)

     Parallel routines
     fft_scatter  :      0.93s CPU      2.48s WALL (    8194 calls)

     PAW routines
     PAW_pot      :      0.33s CPU      0.43s WALL (       6 calls)
     PAW_ddot     :      0.04s CPU      0.07s WALL (      22 calls)
     PAW_symme    :      0.00s CPU      0.00s WALL (      12 calls)

     PWSCF        :     6.51s CPU         9.07s WALL


   This run was terminated on:   2:17:10  12Jul2015            

=------------------------------------------------------------------------------=
   JOB DONE.
=------------------------------------------------------------------------------=
