
     Program PWSCF v.5.0.2 (svn rev. 9656) starts on 11Jul2015 at 20:34:56 

     This program is part of the open-source Quantum ESPRESSO suite
     for quantum simulation of materials; please cite
         "P. Giannozzi et al., J. Phys.:Condens. Matter 21 395502 (2009);
          URL http://www.quantum-espresso.org", 
     in publications or presentations arising from this work. More details at
     http://www.quantum-espresso.org/quote.php

     Parallel version (MPI), running on     4 processors
     R & G space division:  proc/nbgrp/npool/nimage =       4

     Current dimensions of program PWSCF are:
     Max number of different atomic species (ntypx) = 10
     Max number of k-points (npk) =  40000
     Max angular momentum in pseudopotentials (lmaxx) =  3
     Waiting for input...
     Reading input from standard input
               file Cu.pbe.UPF: wavefunction(s)  4S 3D renormalized

     Subspace diagonalization in iterative solution of the eigenvalue problem:
     a serial algorithm will be used


     Parallelization info
     --------------------
     sticks:   dense  smooth     PW     G-vecs:    dense   smooth      PW
     Min         250     250     75                 5217     5217     869
     Max         251     251     76                 5220     5220     872
     Sum        1003    1003    301                20875    20875    3479



     bravais-lattice index     =            2
     lattice parameter (alat)  =      10.2000  a.u.
     unit-cell volume          =     265.3020 (a.u.)^3
     number of atoms/cell      =            2
     number of atomic types    =            1
     number of electrons       =        22.00
     number of Kohn-Sham states=           15
     kinetic-energy cutoff     =      70.0000  Ry
     charge density cutoff     =     280.0000  Ry
     convergence threshold     =      1.0E-07
     mixing beta               =       0.7000
     number of iterations used =            8  plain     mixing
     Exchange-correlation      =  SLA  PW   PBX  PBC ( 1 4 3 4 0)
     EXX-fraction              =        0.00

     celldm(1)=  10.200000  celldm(2)=   0.000000  celldm(3)=   0.000000
     celldm(4)=   0.000000  celldm(5)=   0.000000  celldm(6)=   0.000000

     crystal axes: (cart. coord. in units of alat)
               a(1) = (  -0.500000   0.000000   0.500000 )  
               a(2) = (   0.000000   0.500000   0.500000 )  
               a(3) = (  -0.500000   0.500000   0.000000 )  

     reciprocal axes: (cart. coord. in units 2 pi/alat)
               b(1) = ( -1.000000 -1.000000  1.000000 )  
               b(2) = (  1.000000  1.000000  1.000000 )  
               b(3) = ( -1.000000  1.000000 -1.000000 )  


     PseudoPot. # 1 for Cu read from file:
     ./Cu.pbe.UPF
     MD5 check sum: 0c51aa2b3b25e0d1c3270f17c0a46a12
     Pseudo is Projector augmented-wave + core cor, Zval = 11.0
     Generated using "atomic" code by A. Dal Corso  v.5.0.99 svn rev. 10869
     Shape of augmentation charge: BESSEL
     Using radial grid of 1199 points,  6 beta functions with: 
                l(1) =   0
                l(2) =   0
                l(3) =   1
                l(4) =   1
                l(5) =   2
                l(6) =   2
     Q(r) pseudized with 0 coefficients 


     atomic species   valence    mass     pseudopotential
        Cu            11.00    63.54600     Cu( 1.00)

     48 Sym. Ops., with inversion, found (24 have fractional translation)



   Cartesian axes

     site n.     atom                  positions (alat units)
         1           Cu  tau(   1) = (   0.0000000   0.0000000   0.0000000  )
         2           Cu  tau(   2) = (   0.2500000   0.2500000   0.2500000  )

     number of k points=    84  gaussian smearing, width (Ry)=  0.0030
                       cart. coord. in units 2pi/alat
        k(    1) = (   0.0000000   0.0000000   0.0000000), wk =   0.0009103
        k(    2) = (  -0.0769231   0.0769231  -0.0769231), wk =   0.0072827
        k(    3) = (  -0.1538462   0.1538462  -0.1538462), wk =   0.0072827
        k(    4) = (  -0.2307692   0.2307692  -0.2307692), wk =   0.0072827
        k(    5) = (  -0.3076923   0.3076923  -0.3076923), wk =   0.0072827
        k(    6) = (  -0.3846154   0.3846154  -0.3846154), wk =   0.0072827
        k(    7) = (  -0.4615385   0.4615385  -0.4615385), wk =   0.0072827
        k(    8) = (   0.0000000   0.1538462   0.0000000), wk =   0.0054620
        k(    9) = (  -0.0769231   0.2307692  -0.0769231), wk =   0.0218480
        k(   10) = (  -0.1538462   0.3076923  -0.1538462), wk =   0.0218480
        k(   11) = (  -0.2307692   0.3846154  -0.2307692), wk =   0.0218480
        k(   12) = (  -0.3076923   0.4615385  -0.3076923), wk =   0.0218480
        k(   13) = (  -0.3846154   0.5384615  -0.3846154), wk =   0.0218480
        k(   14) = (   0.5384615  -0.3846154   0.5384615), wk =   0.0218480
        k(   15) = (   0.4615385  -0.3076923   0.4615385), wk =   0.0218480
        k(   16) = (   0.3846154  -0.2307692   0.3846154), wk =   0.0218480
        k(   17) = (   0.3076923  -0.1538462   0.3076923), wk =   0.0218480
        k(   18) = (   0.2307692  -0.0769231   0.2307692), wk =   0.0218480
        k(   19) = (   0.1538462   0.0000000   0.1538462), wk =   0.0109240
        k(   20) = (   0.0000000   0.3076923   0.0000000), wk =   0.0054620
        k(   21) = (  -0.0769231   0.3846154  -0.0769231), wk =   0.0218480
        k(   22) = (  -0.1538462   0.4615385  -0.1538462), wk =   0.0218480
        k(   23) = (  -0.2307692   0.5384615  -0.2307692), wk =   0.0218480
        k(   24) = (  -0.3076923   0.6153846  -0.3076923), wk =   0.0218480
        k(   25) = (   0.6153846  -0.3076923   0.6153846), wk =   0.0218480
        k(   26) = (   0.5384615  -0.2307692   0.5384615), wk =   0.0218480
        k(   27) = (   0.4615385  -0.1538462   0.4615385), wk =   0.0218480
        k(   28) = (   0.3846154  -0.0769231   0.3846154), wk =   0.0218480
        k(   29) = (   0.3076923   0.0000000   0.3076923), wk =   0.0109240
        k(   30) = (   0.0000000   0.4615385   0.0000000), wk =   0.0054620
        k(   31) = (  -0.0769231   0.5384615  -0.0769231), wk =   0.0218480
        k(   32) = (  -0.1538462   0.6153846  -0.1538462), wk =   0.0218480
        k(   33) = (  -0.2307692   0.6923077  -0.2307692), wk =   0.0218480
        k(   34) = (   0.6923077  -0.2307692   0.6923077), wk =   0.0218480
        k(   35) = (   0.6153846  -0.1538462   0.6153846), wk =   0.0218480
        k(   36) = (   0.5384615  -0.0769231   0.5384615), wk =   0.0218480
        k(   37) = (   0.4615385   0.0000000   0.4615385), wk =   0.0109240
        k(   38) = (   0.0000000   0.6153846   0.0000000), wk =   0.0054620
        k(   39) = (  -0.0769231   0.6923077  -0.0769231), wk =   0.0218480
        k(   40) = (  -0.1538462   0.7692308  -0.1538462), wk =   0.0218480
        k(   41) = (   0.7692308  -0.1538462   0.7692308), wk =   0.0218480
        k(   42) = (   0.6923077  -0.0769231   0.6923077), wk =   0.0218480
        k(   43) = (   0.6153846   0.0000000   0.6153846), wk =   0.0109240
        k(   44) = (   0.0000000   0.7692308   0.0000000), wk =   0.0054620
        k(   45) = (  -0.0769231   0.8461538  -0.0769231), wk =   0.0218480
        k(   46) = (   0.8461538  -0.0769231   0.8461538), wk =   0.0218480
        k(   47) = (   0.7692308   0.0000000   0.7692308), wk =   0.0109240
        k(   48) = (   0.0000000   0.9230769   0.0000000), wk =   0.0054620
        k(   49) = (   0.9230769   0.0000000   0.9230769), wk =   0.0109240
        k(   50) = (  -0.1538462   0.3076923   0.0000000), wk =   0.0218480
        k(   51) = (  -0.2307692   0.3846154  -0.0769231), wk =   0.0436959
        k(   52) = (  -0.3076923   0.4615385  -0.1538462), wk =   0.0436959
        k(   53) = (  -0.3846154   0.5384615  -0.2307692), wk =   0.0436959
        k(   54) = (   0.5384615  -0.3846154   0.6923077), wk =   0.0436959
        k(   55) = (  -0.1538462   0.4615385   0.0000000), wk =   0.0218480
        k(   56) = (  -0.2307692   0.5384615  -0.0769231), wk =   0.0436959
        k(   57) = (  -0.3076923   0.6153846  -0.1538462), wk =   0.0436959
        k(   58) = (   0.6153846  -0.3076923   0.7692308), wk =   0.0436959
        k(   59) = (   0.5384615  -0.2307692   0.6923077), wk =   0.0436959
        k(   60) = (   0.4615385  -0.1538462   0.6153846), wk =   0.0436959
        k(   61) = (   0.3846154  -0.0769231   0.5384615), wk =   0.0436959
        k(   62) = (   0.3076923   0.0000000   0.4615385), wk =   0.0218480
        k(   63) = (  -0.1538462   0.6153846   0.0000000), wk =   0.0218480
        k(   64) = (  -0.2307692   0.6923077  -0.0769231), wk =   0.0436959
        k(   65) = (   0.6923077  -0.2307692   0.8461538), wk =   0.0436959
        k(   66) = (   0.6153846  -0.1538462   0.7692308), wk =   0.0436959
        k(   67) = (   0.5384615  -0.0769231   0.6923077), wk =   0.0436959
        k(   68) = (   0.4615385   0.0000000   0.6153846), wk =   0.0218480
        k(   69) = (  -0.1538462   0.7692308   0.0000000), wk =   0.0218480
        k(   70) = (   0.7692308  -0.1538462   0.9230769), wk =   0.0436959
        k(   71) = (   0.6923077  -0.0769231   0.8461538), wk =   0.0436959
        k(   72) = (   0.6153846   0.0000000   0.7692308), wk =   0.0218480
        k(   73) = (   0.8461538  -0.0769231   1.0000000), wk =   0.0218480
        k(   74) = (   0.7692308   0.0000000   0.9230769), wk =   0.0218480
        k(   75) = (  -0.3076923   0.6153846   0.0000000), wk =   0.0218480
        k(   76) = (   0.6153846  -0.3076923   0.9230769), wk =   0.0436959
        k(   77) = (   0.5384615  -0.2307692   0.8461538), wk =   0.0436959
        k(   78) = (   0.6923077  -0.2307692   1.0000000), wk =   0.0218480
        k(   79) = (   0.6153846  -0.1538462   0.9230769), wk =   0.0436959
        k(   80) = (   0.5384615  -0.0769231   0.8461538), wk =   0.0436959
        k(   81) = (   0.4615385   0.0000000   0.7692308), wk =   0.0218480
        k(   82) = (   0.6923077  -0.0769231   1.0000000), wk =   0.0218480
        k(   83) = (   0.6153846   0.0000000   0.9230769), wk =   0.0218480
        k(   84) = (   0.5384615  -0.0769231   1.0000000), wk =   0.0218480

     Dense  grid:    20875 G-vectors     FFT dimensions: (  40,  40,  40)

     Largest allocated arrays     est. size (Mb)     dimensions
        Kohn-Sham Wavefunctions         0.15 Mb     (    668,   15)
        NL pseudopotentials             0.37 Mb     (    668,   36)
        Each V/rho on FFT grid          0.24 Mb     (  16000)
        Each G-vector array             0.04 Mb     (   5220)
        G-vector shells                 0.00 Mb     (    247)
     Largest temporary arrays     est. size (Mb)     dimensions
        Auxiliary wavefunctions         0.61 Mb     (    668,   60)
        Each subspace H/S matrix        0.05 Mb     (  60,  60)
        Each <psi_i|beta_j> matrix      0.01 Mb     (     36,   15)
        Arrays for rho mixing           1.95 Mb     (  16000,   8)

     Check: negative/imaginary core charge=   -0.000072    0.000000

     Initial potential from superposition of free atoms

     starting charge   21.99954, renormalised to   22.00000
     Starting wfc are   18 randomized atomic wfcs
     Checking if some PAW data can be deallocated... 

     total cpu time spent up to now is        5.6 secs

     per-process dynamical memory:    13.4 Mb

     Self-consistent Calculation

     iteration #  1     ecut=    70.00 Ry     beta=0.70
     Davidson diagonalization with overlap
     ethr =  1.00E-02,  avg # of iterations =  3.8

     Threshold (ethr) on eigenvalues was too large:
     Diagonalizing with lowered threshold

     Davidson diagonalization with overlap
     ethr =  2.01E-05,  avg # of iterations =  4.5

     total cpu time spent up to now is       29.4 secs

     total energy              =    -426.04081385 Ry
     Harris-Foulkes estimate   =    -426.04109177 Ry
     estimated scf accuracy    <       0.00556667 Ry

     iteration #  2     ecut=    70.00 Ry     beta=0.70
     Davidson diagonalization with overlap
     ethr =  2.53E-05,  avg # of iterations =  2.1

     total cpu time spent up to now is       39.4 secs

     total energy              =    -426.03951270 Ry
     Harris-Foulkes estimate   =    -426.04256231 Ry
     estimated scf accuracy    <       0.00607475 Ry

     iteration #  3     ecut=    70.00 Ry     beta=0.70
     Davidson diagonalization with overlap
     ethr =  2.53E-05,  avg # of iterations =  2.2

     total cpu time spent up to now is       49.5 secs

     total energy              =    -426.04105197 Ry
     Harris-Foulkes estimate   =    -426.04201712 Ry
     estimated scf accuracy    <       0.00328182 Ry

     iteration #  4     ecut=    70.00 Ry     beta=0.70
     Davidson diagonalization with overlap
     ethr =  1.49E-05,  avg # of iterations =  1.2

     total cpu time spent up to now is       57.8 secs

     total energy              =    -426.04147987 Ry
     Harris-Foulkes estimate   =    -426.04148061 Ry
     estimated scf accuracy    <       0.00000400 Ry

     iteration #  5     ecut=    70.00 Ry     beta=0.70
     Davidson diagonalization with overlap
     ethr =  1.82E-08,  avg # of iterations =  3.9

     total cpu time spent up to now is       71.7 secs

     total energy              =    -426.04151147 Ry
     Harris-Foulkes estimate   =    -426.04151227 Ry
     estimated scf accuracy    <       0.00000603 Ry

     iteration #  6     ecut=    70.00 Ry     beta=0.70
     Davidson diagonalization with overlap
     ethr =  1.82E-08,  avg # of iterations =  1.0

     total cpu time spent up to now is       80.1 secs

     total energy              =    -426.04151146 Ry
     Harris-Foulkes estimate   =    -426.04151164 Ry
     estimated scf accuracy    <       0.00000213 Ry

     iteration #  7     ecut=    70.00 Ry     beta=0.70
     Davidson diagonalization with overlap
     ethr =  9.68E-09,  avg # of iterations =  1.0

     total cpu time spent up to now is       88.5 secs

     total energy              =    -426.04151155 Ry
     Harris-Foulkes estimate   =    -426.04151150 Ry
     estimated scf accuracy    <       0.00000109 Ry

     iteration #  8     ecut=    70.00 Ry     beta=0.70
     Davidson diagonalization with overlap
     ethr =  4.97E-09,  avg # of iterations =  1.0

     total cpu time spent up to now is       96.8 secs

     total energy              =    -426.04151134 Ry
     Harris-Foulkes estimate   =    -426.04151156 Ry
     estimated scf accuracy    <       0.00000134 Ry

     iteration #  9     ecut=    70.00 Ry     beta=0.70
     Davidson diagonalization with overlap
     ethr =  4.97E-09,  avg # of iterations =  1.0

     total cpu time spent up to now is      105.3 secs

     total energy              =    -426.04151132 Ry
     Harris-Foulkes estimate   =    -426.04151139 Ry
     estimated scf accuracy    <       0.00000036 Ry

     iteration # 10     ecut=    70.00 Ry     beta=0.70
     Davidson diagonalization with overlap
     ethr =  1.63E-09,  avg # of iterations =  1.2

     total cpu time spent up to now is      113.4 secs

     End of self-consistent calculation

          k = 0.0000 0.0000 0.0000 (  2685 PWs)   bands (ev):

     0.6908   3.9922   3.9922   3.9922   4.0146   4.0146   5.0475   5.0475
     5.0475   5.6720   5.6720  16.3957  16.3957  16.3957  17.3423

          k =-0.0769 0.0769-0.0769 (  2667 PWs)   bands (ev):

     0.7815   3.9360   3.9360   3.9940   4.0856   4.0856   5.0288   5.0443
     5.0443   5.6725   5.6725  14.9089  15.9397  15.9397  17.8281

          k =-0.1538 0.1538-0.1538 (  2655 PWs)   bands (ev):

     1.0497   3.8947   3.8947   4.0011   4.1634   4.1634   4.9786   5.0423
     5.0423   5.6719   5.6719  12.9414  15.2904  15.2904  17.7552

          k =-0.2308 0.2308-0.2308 (  2632 PWs)   bands (ev):

     1.4804   3.8824   3.8824   4.0169   4.2137   4.2137   4.9163   5.0603
     5.0603   5.6652   5.6652  11.0598  14.7210  14.7210  17.6194

          k =-0.3077 0.3077-0.3077 (  2635 PWs)   bands (ev):

     2.0355   3.8989   3.8989   4.0402   4.2175   4.2175   4.8872   5.1114
     5.1114   5.6478   5.6478   9.3416  14.2712  14.2712  17.5644

          k =-0.3846 0.3846-0.3846 (  2605 PWs)   bands (ev):

     2.6189   3.9394   3.9394   4.0544   4.1790   4.1790   4.9903   5.1837
     5.1837   5.6200   5.6200   7.8411  13.9597  13.9597  17.6074

          k =-0.4615 0.4615-0.4615 (  2623 PWs)   bands (ev):

     3.0243   3.9877   3.9877   4.0436   4.1269   4.1269   5.2405   5.2405
     5.3370   5.5938   5.5938   6.6935  13.7999  13.7999  17.7166

          k = 0.0000 0.1538 0.0000 (  2673 PWs)   bands (ev):

     0.8119   3.8830   3.9975   3.9975   4.0410   4.1295   4.9730   5.0691
     5.0691   5.6505   5.6924  15.2481  15.2481  15.7594  16.8212

          k =-0.0769 0.2308-0.0769 (  2649 PWs)   bands (ev):

     1.0214   3.8338   3.9690   4.0030   4.1099   4.1994   4.8997   5.0801
     5.0910   5.6297   5.7075  13.5994  14.5812  15.4238  17.0168

          k =-0.1538 0.3077-0.1538 (  2629 PWs)   bands (ev):

     1.3992   3.8096   3.9529   4.0123   4.1697   4.2621   4.8339   5.0807
     5.1233   5.6092   5.7150  11.7089  14.0338  14.8548  17.3425

          k =-0.2308 0.3846-0.2308 (  2631 PWs)   bands (ev):

     1.9168   3.8142   3.9615   4.0277   4.1881   4.2872   4.8027   5.1020
     5.1757   5.5871   5.7106   9.9409  13.6412  14.2689  17.1597

          k =-0.3077 0.4615-0.3077 (  2623 PWs)   bands (ev):

     2.5022   3.8437   3.9877   4.0420   4.1678   4.2631   4.8555   5.1811
     5.2330   5.5687   5.6902   8.3616  13.4251  13.7431  16.9585

          k =-0.3846 0.5385-0.3846 (  2617 PWs)   bands (ev):

     2.9878   3.8846   4.0020   4.0444   4.1488   4.2071   5.0272   5.2517
     5.3950   5.5755   5.6548   7.0513  13.3262  13.3988  16.9071

          k = 0.5385-0.3846 0.5385 (  2617 PWs)   bands (ev):

     3.1338   3.9214   3.9634   4.0625   4.1423   4.1832   5.1415   5.2065
     5.5894   5.6157   5.6562   6.4981  13.0572  13.5643  17.0288

          k = 0.4615-0.3077 0.4615 (  2612 PWs)   bands (ev):

     2.8500   3.9038   3.9543   4.0713   4.1234   4.2420   5.0393   5.1242
     5.3540   5.5692   5.6623   7.4534  12.9609  13.9093  17.3213

          k = 0.3846-0.2308 0.3846 (  2627 PWs)   bands (ev):

     2.3054   3.8551   3.9549   4.0379   4.1646   4.2858   4.8854   5.0424
     5.2617   5.5746   5.6955   8.8684  13.0458  14.4075  17.7645

          k = 0.3077-0.1538 0.3077 (  2626 PWs)   bands (ev):

     1.7305   3.8304   3.9382   4.0175   4.1811   4.2875   4.8699   4.9937
     5.1924   5.5985   5.7101  10.5176  13.3064  15.0198  18.1013

          k = 0.2308-0.0769 0.2308 (  2638 PWs)   bands (ev):

     1.2549   3.8358   3.9331   4.0068   4.1562   4.2402   4.9166   4.9897
     5.1380   5.6245   5.7078  12.3370  13.7288  15.6848  18.0606

          k = 0.1538 0.0000 0.1538 (  2665 PWs)   bands (ev):

     0.9316   3.8725   3.9431   4.0012   4.1049   4.1641   4.9784   5.0140
     5.0923   5.6494   5.6934  14.1728  14.3691  16.1998  17.5994

          k = 0.0000 0.3077 0.0000 (  2637 PWs)   bands (ev):

     1.1715   3.7756   4.0102   4.0102   4.1184   4.2549   4.7836   5.1362
     5.1362   5.5866   5.7322  13.8879  13.8879  14.4547  16.0319

          k =-0.0769 0.3846-0.0769 (  2631 PWs)   bands (ev):

     1.4925   3.7394   4.0074   4.0159   4.1786   4.3170   4.6799   5.1723
     5.1850   5.5466   5.7490  12.3767  13.3129  14.0365  16.1452

          k =-0.1538 0.4615-0.1538 (  2623 PWs)   bands (ev):

     1.9622   3.7314   4.0092   4.0189   4.2196   4.3568   4.6227   5.2061
     5.2396   5.5157   5.7584  10.6268  12.9019  13.4166  16.2337

          k =-0.2308 0.5385-0.2308 (  2641 PWs)   bands (ev):

     2.5239   3.7484   4.0147   4.0181   4.2326   4.3409   4.6598   5.2708
     5.2853   5.5156   5.7569   9.0027  12.6847  12.7621  16.1004

          k =-0.3077 0.6154-0.3077 (  2619 PWs)   bands (ev):

     3.0431   3.7763   4.0014   4.0143   4.2469   4.2884   4.8024   5.2374
     5.4953   5.5669   5.7516   7.5813  12.1905  12.6805  16.0767

          k = 0.6154-0.3077 0.6154 (  2617 PWs)   bands (ev):

     3.2990   3.8072   3.9562   4.0283   4.2176   4.2871   4.9778   5.1553
     5.6365   5.6482   6.0471   6.5202  11.7609  12.8943  16.2100

          k = 0.5385-0.2308 0.5385 (  2617 PWs)   bands (ev):

     3.1512   3.8682   3.8959   4.0739   4.1365   4.3417   5.0452   5.0556
     5.5736   5.6550   5.6935   7.2066  11.5089  13.3135  16.5037

          k = 0.4615-0.1538 0.4615 (  2623 PWs)   bands (ev):

     2.6931   3.8422   3.9278   4.0589   4.1273   4.3820   4.9388   4.9690
     5.4183   5.5282   5.7283   8.5408  11.4522  13.9075  16.9586

          k = 0.3846-0.0769 0.3846 (  2628 PWs)   bands (ev):

     2.1301   3.8096   3.9667   4.0026   4.1625   4.3769   4.8595   4.9287
     5.3418   5.5229   5.7403  10.1080  11.5943  14.6217  17.5725

          k = 0.3077 0.0000 0.3077 (  2631 PWs)   bands (ev):

     1.6253   3.8065   3.9580   3.9995   4.1681   4.3205   4.8636   4.9439
     5.2422   5.5701   5.7322  11.7179  12.0441  15.3350  18.3617

          k = 0.0000 0.4615 0.0000 (  2630 PWs)   bands (ev):

     1.7559   3.6902   4.0230   4.0230   4.2412   4.3733   4.5344   5.2509
     5.2509   5.4829   5.7742  12.6922  12.6922  12.8254  15.3951

          k =-0.0769 0.5385-0.0769 (  2628 PWs)   bands (ev):

     2.1714   3.6702   4.0219   4.0259   4.3061   4.4100   4.4432   5.3105
     5.3147   5.4369   5.7978  11.2469  12.2318  12.3755  15.4830

          k =-0.1538 0.6154-0.1538 (  2622 PWs)   bands (ev):

     2.6916   3.6776   4.0009   4.0236   4.3499   4.3588   4.4999   5.2856
     5.4001   5.4812   5.8231   9.6940  11.6675  11.9711  15.4887

          k =-0.2308 0.6923-0.2308 (  2619 PWs)   bands (ev):

     3.2020   3.6988   3.9728   4.0065   4.3263   4.3837   4.6148   5.1999
     5.5729   5.5737   5.8735   8.2533  10.9876  11.9362  15.4773

          k = 0.6923-0.2308 0.6923 (  2631 PWs)   bands (ev):

     3.5060   3.7228   3.9671   3.9731   4.2710   4.4246   4.8003   5.0930
     5.6549   5.7122   6.2339   7.0141  10.4410  12.1355  15.5948

          k = 0.6154-0.1538 0.6154 (  2626 PWs)   bands (ev):

     3.4535   3.7986   3.9127   4.0149   4.1885   4.4708   4.9592   4.9820
     5.6844   5.7129   6.0743   7.1335  10.0735  12.5552  15.8580

          k = 0.5385-0.0769 0.5385 (  2626 PWs)   bands (ev):

     3.1259   3.8590   3.8669   4.0753   4.1060   4.4950   4.8990   5.0044
     5.5453   5.6183   5.7447   8.3734   9.9167  13.1606  16.2728

          k = 0.4615 0.0000 0.4615 (  2634 PWs)   bands (ev):

     2.6313   3.8210   3.9248   4.0406   4.1303   4.4594   4.8845   4.9200
     5.4651   5.4862   5.7528   9.6871  10.1296  13.8916  16.8448

          k = 0.0000 0.6154 0.0000 (  2626 PWs)   bands (ev):

     2.5299   3.6400   4.0309   4.0309   4.2705   4.4008   4.4711   5.3436
     5.4035   5.4035   5.8420  11.0138  11.7099  11.7099  14.9590

          k =-0.0769 0.6923-0.0769 (  2614 PWs)   bands (ev):

     2.9954   3.6411   4.0022   4.0299   4.2034   4.4766   4.5027   5.2514
     5.4903   5.4993   5.9053   9.9603  11.0099  11.3865  15.0447

          k =-0.1538 0.7692-0.1538 (  2621 PWs)   bands (ev):

     3.4600   3.6619   3.9324   4.0176   4.2519   4.5314   4.5329   5.1443
     5.5951   5.6192   6.0282   8.8205  10.1019  11.2967  15.0630

          k = 0.7692-0.1538 0.7692 (  2622 PWs)   bands (ev):

     3.6691   3.7520   3.9089   3.9885   4.2841   4.5808   4.6431   5.0250
     5.6711   5.7453   6.3854   7.7119   9.3559  11.4549  15.1548

          k = 0.6923-0.0769 0.6923 (  2613 PWs)   bands (ev):

     3.6320   3.8405   3.9416   3.9450   4.2292   4.6174   4.8213   4.9104
     5.7198   5.7737   6.6023   7.3032   8.8491  11.8476  15.3798

          k = 0.6154 0.0000 0.6154 (  2624 PWs)   bands (ev):

     3.4749   3.8377   3.8973   4.0074   4.1607   4.5945   4.8599   4.9580
     5.7211   5.7429   5.9332   8.1958   8.7653  12.4365  15.7491

          k = 0.0000 0.7692 0.0000 (  2630 PWs)   bands (ev):

     3.3967   3.6398   4.0283   4.0334   4.0334   4.5209   4.5863   5.1751
     5.5605   5.5605   6.0275   9.2353  10.9926  10.9926  14.7142

          k =-0.0769 0.8462-0.0769 (  2616 PWs)   bands (ev):

     3.6656   3.7845   3.8938   4.0287   4.1175   4.5100   4.6714   5.0735
     5.6302   5.6424   6.2404   8.4194  10.3172  10.8353  14.7997

          k = 0.8462-0.0769 0.8462 (  2622 PWs)   bands (ev):

     3.6867   3.8284   3.9650   4.0113   4.2707   4.5169   4.7363   4.9537
     5.6833   5.7360   6.6538   7.7254   9.2863  10.9372  14.8685

          k = 0.7692 0.0000 0.7692 (  2608 PWs)   bands (ev):

     3.6674   3.8652   3.9622   3.9813   4.2692   4.6615   4.7447   4.8672
     5.7118   5.7912   7.0719   7.3469   8.4596  11.2879  15.0543

          k = 0.0000 0.9231 0.0000 (  2618 PWs)   bands (ev):

     3.7018   3.8307   4.0335   4.0335   4.1191   4.4553   4.7854   4.9856
     5.6651   5.6651   6.5668   7.6815  10.6062  10.6062  14.6476

          k = 0.9231 0.0000 0.9231 (  2638 PWs)   bands (ev):

     3.7363   3.7711   4.0277   4.0341   4.3270   4.3791   4.8671   4.8833
     5.6841   5.7007   7.0762   7.0821  10.0995  10.6414  14.7213

          k =-0.1538 0.3077 0.0000 (  2636 PWs)   bands (ev):

     1.2865   3.7913   3.9766   4.0085   4.1472   4.2672   4.8099   5.0715
     5.1632   5.5936   5.7272  12.8981  13.1552  15.2233  16.9610

          k =-0.2308 0.3846-0.0769 (  2630 PWs)   bands (ev):

     1.7109   3.7750   3.9829   4.0089   4.1809   4.3289   4.7463   5.0666
     5.2378   5.5555   5.7393  11.1872  12.6005  14.6481  17.2193

          k =-0.3077 0.4615-0.1538 (  2625 PWs)   bands (ev):

     2.2541   3.7871   3.9805   4.0288   4.1812   4.3496   4.7463   5.0951
     5.3117   5.5293   5.7379   9.4955  12.3058  13.9697  17.0609

          k =-0.3846 0.5385-0.2308 (  2619 PWs)   bands (ev):

     2.8154   3.8187   3.9578   4.0664   4.1624   4.3198   4.8461   5.1668
     5.3952   5.5468   5.7193   7.9937  12.1801  13.3830  16.9022

          k = 0.5385-0.3846 0.6923 (  2622 PWs)   bands (ev):

     3.1965   3.8438   3.9310   4.0722   4.1806   4.2666   4.9996   5.1757
     5.5968   5.6460   5.7748   6.7807  12.1816  13.0081  16.8302

          k =-0.1538 0.4615 0.0000 (  2633 PWs)   bands (ev):

     1.8609   3.7110   4.0103   4.0216   4.2283   4.3767   4.5762   5.1911
     5.2814   5.4955   5.7685  11.7111  12.0725  13.5785  16.2393

          k =-0.2308 0.5385-0.0769 (  2621 PWs)   bands (ev):

     2.3585   3.7108   3.9865   4.0388   4.2578   4.4113   4.5454   5.2132
     5.3694   5.4683   5.7837  10.1865  11.5814  12.9383  16.3893

          k =-0.3077 0.6154-0.1538 (  2625 PWs)   bands (ev):

     2.9032   3.7312   3.9502   4.0539   4.2700   4.3845   4.6349   5.2174
     5.4527   5.5344   5.7943   8.6567  11.3428  12.3499  16.3241

          k = 0.6154-0.3077 0.7692 (  2621 PWs)   bands (ev):

     3.3268   3.7514   3.9147   4.0554   4.2778   4.3508   4.8018   5.1477
     5.6135   5.6747   5.9122   7.3228  11.1211  12.0805  16.3712

          k = 0.5385-0.2308 0.6923 (  2621 PWs)   bands (ev):

     3.4362   3.7795   3.8878   4.0624   4.2319   4.3749   4.9316   5.0685
     5.6648   5.6924   6.2691   6.6447  10.8570  12.2353  16.5569

          k = 0.4615-0.1538 0.6154 (  2625 PWs)   bands (ev):

     3.1854   3.8109   3.8831   4.0879   4.1666   4.4221   4.8474   5.1046
     5.5721   5.6383   5.7637   7.7855  10.6888  12.6846  16.8759

          k = 0.3846-0.0769 0.5385 (  2615 PWs)   bands (ev):

     2.7017   3.7852   3.9292   4.0640   4.1649   4.4424   4.7327   5.0868
     5.4444   5.5063   5.7620   9.1960  10.7013  13.3221  17.3102

          k = 0.3077 0.0000 0.4615 (  2623 PWs)   bands (ev):

     2.1654   3.7668   3.9753   4.0196   4.1840   4.4035   4.7017   5.0569
     5.3655   5.4939   5.7576  10.6477  11.0514  14.0518  17.8134

          k =-0.1538 0.6154 0.0000 (  2621 PWs)   bands (ev):

     2.6140   3.6596   3.9940   4.0403   4.3437   4.3700   4.4708   5.2918
     5.4282   5.4344   5.8341  10.5404  11.1826  11.9201  15.7231

          k =-0.2308 0.6923-0.0769 (  2623 PWs)   bands (ev):

     3.1159   3.6737   3.9382   4.0478   4.3389   4.4109   4.5222   5.2094
     5.5192   5.5511   5.8896   9.3026  10.5968  11.4005  15.8494

          k = 0.6923-0.2308 0.8462 (  2624 PWs)   bands (ev):

     3.5237   3.6927   3.8938   4.0412   4.3341   4.4611   4.6323   5.1007
     5.6368   5.6943   6.0710   8.0138  10.0755  11.2581  15.8975

          k = 0.6154-0.1538 0.7692 (  2618 PWs)   bands (ev):

     3.6432   3.7480   3.8779   4.0353   4.2790   4.5130   4.8009   4.9859
     5.7013   5.7523   6.6145   6.9761   9.6089  11.4737  16.0796

          k = 0.5385-0.0769 0.6923 (  2620 PWs)   bands (ev):

     3.5067   3.8113   3.8530   4.0589   4.2039   4.5508   4.8168   4.9976
     5.7062   5.7342   6.0431   7.7589   9.3144  11.9379  16.4043

          k = 0.4615 0.0000 0.6154 (  2624 PWs)   bands (ev):

     3.1684   3.8067   3.8698   4.0901   4.1519   4.5311   4.7468   5.0763
     5.5558   5.6199   5.7809   8.8795   9.4047  12.5811  16.8593

          k =-0.1538 0.7692 0.0000 (  2625 PWs)   bands (ev):

     3.4323   3.6527   3.9293   4.0439   4.1869   4.5086   4.5654   5.1562
     5.5796   5.5887   6.0261   9.1618  10.5363  10.7874  15.4154

          k = 0.7692-0.1538 0.9231 (  2620 PWs)   bands (ev):

     3.6775   3.7559   3.8691   4.0418   4.2811   4.5162   4.6320   5.0395
     5.6643   5.6980   6.2870   8.3308   9.6180  10.6353  15.5487

          k = 0.6923-0.0769 0.8462 (  2614 PWs)   bands (ev):

     3.6769   3.8146   3.9273   4.0250   4.3088   4.6266   4.6917   4.9150
     5.7141   5.7802   6.8029   7.5558   8.7808  10.8492  15.6981

          k = 0.6154 0.0000 0.7692 (  2615 PWs)   bands (ev):

     3.6460   3.8386   3.8889   4.0265   4.2545   4.6690   4.7645   4.8809
     5.7348   5.7862   6.6170   7.7075   8.4316  11.3023  15.9854

          k = 0.8462-0.0769 1.0000 (  2611 PWs)   bands (ev):

     3.7016   3.8039   3.9837   4.0411   4.2378   4.4643   4.7619   4.9659
     5.6897   5.6899   6.6057   7.7228  10.2046  10.2646  15.3040

          k = 0.7692 0.0000 0.9231 (  2615 PWs)   bands (ev):

     3.7057   3.7769   4.0188   4.0255   4.3465   4.4897   4.8136   4.8579
     5.7128   5.7514   7.1648   7.1867   9.2749  10.4209  15.4521

          k =-0.3077 0.6154 0.0000 (  2638 PWs)   bands (ev):

     2.8473   3.7170   3.9293   4.0650   4.2748   4.4887   4.5208   5.1942
     5.4604   5.5150   5.8118   9.7025  10.2523  12.2548  17.3590

          k = 0.6154-0.3077 0.9231 (  2629 PWs)   bands (ev):

     3.3107   3.7377   3.8747   4.0788   4.2875   4.4815   4.6367   5.1237
     5.6001   5.6431   5.8756   8.4675   9.9621  11.6060  17.2643

          k = 0.5385-0.2308 0.8462 (  2619 PWs)   bands (ev):

     3.5898   3.7381   3.8513   4.0754   4.3110   4.4546   4.7918   5.0178
     5.6921   5.7387   6.3013   7.2635   9.9698  11.1906  17.2239

          k = 0.6923-0.2308 1.0000 (  2627 PWs)   bands (ev):

     3.5171   3.6918   3.8671   4.0675   4.4059   4.4278   4.5674   5.0982
     5.6438   5.6571   6.0408   8.8134   9.6934  10.6582  16.9914

          k = 0.6154-0.1538 0.9231 (  2622 PWs)   bands (ev):

     3.7044   3.7198   3.8730   4.0664   4.4039   4.5201   4.6538   4.9703
     5.7199   5.7562   6.4512   7.9188   9.2663  10.2713  17.0950

          k = 0.5385-0.0769 0.8462 (  2634 PWs)   bands (ev):

     3.6881   3.7562   3.8964   4.0639   4.3607   4.5822   4.7390   4.8909
     5.7441   5.7828   6.7735   7.4556   8.9423  10.4183  17.3006

          k = 0.4615 0.0000 0.7692 (  2628 PWs)   bands (ev):

     3.6020   3.7564   3.8480   4.0776   4.3154   4.6056   4.6359   5.0003
     5.7256   5.7333   6.1847   8.2406   8.9323  10.9129  17.5653

          k = 0.6923-0.0769 1.0000 (  2615 PWs)   bands (ev):

     3.7059   3.7514   3.9642   4.0533   4.4167   4.4862   4.7099   4.9104
     5.7418   5.7438   6.7442   7.7935   9.4565   9.6990  16.8203

          k = 0.6154 0.0000 0.9231 (  2621 PWs)   bands (ev):

     3.6963   3.7506   3.9928   4.0418   4.4125   4.5955   4.7424   4.8112
     5.7563   5.7908   7.2010   7.4272   8.7363   9.8658  17.0228

          k = 0.5385-0.0769 1.0000 (  2614 PWs)   bands (ev):

     3.7118   3.7220   3.9714   4.0546   4.4791   4.5688   4.6905   4.8346
     5.7726   5.7871   6.9979   7.7055   8.8531   9.5160  18.2939

     the Fermi energy is     6.7950 ev

!    total energy              =    -426.04151133 Ry
     Harris-Foulkes estimate   =    -426.04151135 Ry
     estimated scf accuracy    <       0.00000003 Ry

     total all-electron energy =     -6619.801048 Ry

     The total energy is the sum of the following terms:

     one-electron contribution =    -116.85409462 Ry
     hartree contribution      =      57.89948580 Ry
     xc contribution           =     -73.47774492 Ry
     ewald contribution        =    -127.80442419 Ry
     one-center paw contrib.   =    -165.80463312 Ry
     smearing contrib. (-TS)   =      -0.00010029 Ry

     convergence has been achieved in  10 iterations

     Writing output data file Cu.save

     init_run     :      4.58s CPU      4.76s WALL (       1 calls)
     electrons    :    104.48s CPU    107.85s WALL (       1 calls)

     Called by init_run:
     wfcinit      :      3.37s CPU      3.51s WALL (       1 calls)
     potinit      :      0.40s CPU      0.41s WALL (       1 calls)

     Called by electrons:
     c_bands      :     81.52s CPU     84.01s WALL (      11 calls)
     sum_band     :     17.46s CPU     17.97s WALL (      11 calls)
     v_of_rho     :      0.34s CPU      0.36s WALL (      11 calls)
     newd         :      0.72s CPU      0.73s WALL (      11 calls)
     mix_rho      :      0.92s CPU      0.93s WALL (      11 calls)

     Called by c_bands:
     init_us_2    :      1.86s CPU      1.93s WALL (    1932 calls)
     cegterg      :     76.63s CPU     78.91s WALL (     924 calls)

     Called by *egterg:
     h_psi        :     67.36s CPU     69.41s WALL (    2926 calls)
     s_psi        :      1.89s CPU      1.89s WALL (    2926 calls)
     g_psi        :      0.51s CPU      0.53s WALL (    1918 calls)
     cdiaghg      :      3.33s CPU      3.37s WALL (    2758 calls)

     Called by h_psi:
     add_vuspsi   :      1.85s CPU      1.89s WALL (    2926 calls)

     General routines
     calbec       :      2.89s CPU      2.87s WALL (    3850 calls)
     fft          :      0.17s CPU      0.18s WALL (     145 calls)
     fftw         :     70.34s CPU     72.56s WALL (   85556 calls)
     davcio       :      0.34s CPU      0.34s WALL (    2856 calls)

     Parallel routines
     fft_scatter  :     14.68s CPU     14.78s WALL (   85701 calls)

     PAW routines
     PAW_pot      :      3.84s CPU      4.01s WALL (      11 calls)
     PAW_ddot     :      0.88s CPU      0.89s WALL (     167 calls)
     PAW_symme    :      0.02s CPU      0.02s WALL (      22 calls)

     PWSCF        :  1m50.32s CPU     1m53.91s WALL


   This run was terminated on:  20:36:50  11Jul2015            

=------------------------------------------------------------------------------=
   JOB DONE.
=------------------------------------------------------------------------------=
