
     Program PWSCF v.5.0.2 (svn rev. 9656) starts on 12Jul2015 at  2:21:44 

     This program is part of the open-source Quantum ESPRESSO suite
     for quantum simulation of materials; please cite
         "P. Giannozzi et al., J. Phys.:Condens. Matter 21 395502 (2009);
          URL http://www.quantum-espresso.org", 
     in publications or presentations arising from this work. More details at
     http://www.quantum-espresso.org/quote.php

     Parallel version (MPI), running on     4 processors
     R & G space division:  proc/nbgrp/npool/nimage =       4

     Current dimensions of program PWSCF are:
     Max number of different atomic species (ntypx) = 10
     Max number of k-points (npk) =  40000
     Max angular momentum in pseudopotentials (lmaxx) =  3
     Waiting for input...
     Reading input from standard input
               file Al.pbe-n-kjpaw_psl.0.1.UPF: wavefunction(s)  3S renormalized

     Subspace diagonalization in iterative solution of the eigenvalue problem:
     a serial algorithm will be used


     Parallelization info
     --------------------
     sticks:   dense  smooth     PW     G-vecs:    dense   smooth      PW
     Min         168     168     52                 2946     2946     520
     Max         169     169     53                 2951     2951     522
     Sum         673     673    211                11791    11791    2085



     bravais-lattice index     =            2
     lattice parameter (alat)  =       7.6300  a.u.
     unit-cell volume          =     111.0487 (a.u.)^3
     number of atoms/cell      =            1
     number of atomic types    =            1
     number of electrons       =         3.00
     number of Kohn-Sham states=            6
     kinetic-energy cutoff     =      85.0000  Ry
     charge density cutoff     =     340.0000  Ry
     convergence threshold     =      1.0E-07
     mixing beta               =       0.7000
     number of iterations used =            8  plain     mixing
     Exchange-correlation      =  SLA  PW   PBX  PBC ( 1 4 3 4 0)
     EXX-fraction              =        0.00

     celldm(1)=   7.630000  celldm(2)=   0.000000  celldm(3)=   0.000000
     celldm(4)=   0.000000  celldm(5)=   0.000000  celldm(6)=   0.000000

     crystal axes: (cart. coord. in units of alat)
               a(1) = (  -0.500000   0.000000   0.500000 )  
               a(2) = (   0.000000   0.500000   0.500000 )  
               a(3) = (  -0.500000   0.500000   0.000000 )  

     reciprocal axes: (cart. coord. in units 2 pi/alat)
               b(1) = ( -1.000000 -1.000000  1.000000 )  
               b(2) = (  1.000000  1.000000  1.000000 )  
               b(3) = ( -1.000000  1.000000 -1.000000 )  


     PseudoPot. # 1 for Al read from file:
     ./Al.pbe-n-kjpaw_psl.0.1.UPF
     MD5 check sum: 023d9faf819c76fc4df1f064efe7b7b2
     Pseudo is Projector augmented-wave + core cor, Zval =  3.0
     Generated using "atomic" code by A. Dal Corso  v.5.0.2 svn rev. 9415
     Shape of augmentation charge: PSQ
     Using radial grid of 1135 points,  4 beta functions with: 
                l(1) =   0
                l(2) =   0
                l(3) =   1
                l(4) =   1
     Q(r) pseudized with 0 coefficients 


     atomic species   valence    mass     pseudopotential
        Al             3.00    26.98154     Al( 1.00)

     48 Sym. Ops., with inversion, found



   Cartesian axes

     site n.     atom                  positions (alat units)
         1           Al  tau(   1) = (   0.0000000   0.0000000   0.0000000  )

     number of k points=    84  gaussian smearing, width (Ry)=  0.0030
                       cart. coord. in units 2pi/alat
        k(    1) = (   0.0000000   0.0000000   0.0000000), wk =   0.0009103
        k(    2) = (  -0.0769231   0.0769231  -0.0769231), wk =   0.0072827
        k(    3) = (  -0.1538462   0.1538462  -0.1538462), wk =   0.0072827
        k(    4) = (  -0.2307692   0.2307692  -0.2307692), wk =   0.0072827
        k(    5) = (  -0.3076923   0.3076923  -0.3076923), wk =   0.0072827
        k(    6) = (  -0.3846154   0.3846154  -0.3846154), wk =   0.0072827
        k(    7) = (  -0.4615385   0.4615385  -0.4615385), wk =   0.0072827
        k(    8) = (   0.0000000   0.1538462   0.0000000), wk =   0.0054620
        k(    9) = (  -0.0769231   0.2307692  -0.0769231), wk =   0.0218480
        k(   10) = (  -0.1538462   0.3076923  -0.1538462), wk =   0.0218480
        k(   11) = (  -0.2307692   0.3846154  -0.2307692), wk =   0.0218480
        k(   12) = (  -0.3076923   0.4615385  -0.3076923), wk =   0.0218480
        k(   13) = (  -0.3846154   0.5384615  -0.3846154), wk =   0.0218480
        k(   14) = (   0.5384615  -0.3846154   0.5384615), wk =   0.0218480
        k(   15) = (   0.4615385  -0.3076923   0.4615385), wk =   0.0218480
        k(   16) = (   0.3846154  -0.2307692   0.3846154), wk =   0.0218480
        k(   17) = (   0.3076923  -0.1538462   0.3076923), wk =   0.0218480
        k(   18) = (   0.2307692  -0.0769231   0.2307692), wk =   0.0218480
        k(   19) = (   0.1538462   0.0000000   0.1538462), wk =   0.0109240
        k(   20) = (   0.0000000   0.3076923   0.0000000), wk =   0.0054620
        k(   21) = (  -0.0769231   0.3846154  -0.0769231), wk =   0.0218480
        k(   22) = (  -0.1538462   0.4615385  -0.1538462), wk =   0.0218480
        k(   23) = (  -0.2307692   0.5384615  -0.2307692), wk =   0.0218480
        k(   24) = (  -0.3076923   0.6153846  -0.3076923), wk =   0.0218480
        k(   25) = (   0.6153846  -0.3076923   0.6153846), wk =   0.0218480
        k(   26) = (   0.5384615  -0.2307692   0.5384615), wk =   0.0218480
        k(   27) = (   0.4615385  -0.1538462   0.4615385), wk =   0.0218480
        k(   28) = (   0.3846154  -0.0769231   0.3846154), wk =   0.0218480
        k(   29) = (   0.3076923   0.0000000   0.3076923), wk =   0.0109240
        k(   30) = (   0.0000000   0.4615385   0.0000000), wk =   0.0054620
        k(   31) = (  -0.0769231   0.5384615  -0.0769231), wk =   0.0218480
        k(   32) = (  -0.1538462   0.6153846  -0.1538462), wk =   0.0218480
        k(   33) = (  -0.2307692   0.6923077  -0.2307692), wk =   0.0218480
        k(   34) = (   0.6923077  -0.2307692   0.6923077), wk =   0.0218480
        k(   35) = (   0.6153846  -0.1538462   0.6153846), wk =   0.0218480
        k(   36) = (   0.5384615  -0.0769231   0.5384615), wk =   0.0218480
        k(   37) = (   0.4615385   0.0000000   0.4615385), wk =   0.0109240
        k(   38) = (   0.0000000   0.6153846   0.0000000), wk =   0.0054620
        k(   39) = (  -0.0769231   0.6923077  -0.0769231), wk =   0.0218480
        k(   40) = (  -0.1538462   0.7692308  -0.1538462), wk =   0.0218480
        k(   41) = (   0.7692308  -0.1538462   0.7692308), wk =   0.0218480
        k(   42) = (   0.6923077  -0.0769231   0.6923077), wk =   0.0218480
        k(   43) = (   0.6153846   0.0000000   0.6153846), wk =   0.0109240
        k(   44) = (   0.0000000   0.7692308   0.0000000), wk =   0.0054620
        k(   45) = (  -0.0769231   0.8461538  -0.0769231), wk =   0.0218480
        k(   46) = (   0.8461538  -0.0769231   0.8461538), wk =   0.0218480
        k(   47) = (   0.7692308   0.0000000   0.7692308), wk =   0.0109240
        k(   48) = (   0.0000000   0.9230769   0.0000000), wk =   0.0054620
        k(   49) = (   0.9230769   0.0000000   0.9230769), wk =   0.0109240
        k(   50) = (  -0.1538462   0.3076923   0.0000000), wk =   0.0218480
        k(   51) = (  -0.2307692   0.3846154  -0.0769231), wk =   0.0436959
        k(   52) = (  -0.3076923   0.4615385  -0.1538462), wk =   0.0436959
        k(   53) = (  -0.3846154   0.5384615  -0.2307692), wk =   0.0436959
        k(   54) = (   0.5384615  -0.3846154   0.6923077), wk =   0.0436959
        k(   55) = (  -0.1538462   0.4615385   0.0000000), wk =   0.0218480
        k(   56) = (  -0.2307692   0.5384615  -0.0769231), wk =   0.0436959
        k(   57) = (  -0.3076923   0.6153846  -0.1538462), wk =   0.0436959
        k(   58) = (   0.6153846  -0.3076923   0.7692308), wk =   0.0436959
        k(   59) = (   0.5384615  -0.2307692   0.6923077), wk =   0.0436959
        k(   60) = (   0.4615385  -0.1538462   0.6153846), wk =   0.0436959
        k(   61) = (   0.3846154  -0.0769231   0.5384615), wk =   0.0436959
        k(   62) = (   0.3076923   0.0000000   0.4615385), wk =   0.0218480
        k(   63) = (  -0.1538462   0.6153846   0.0000000), wk =   0.0218480
        k(   64) = (  -0.2307692   0.6923077  -0.0769231), wk =   0.0436959
        k(   65) = (   0.6923077  -0.2307692   0.8461538), wk =   0.0436959
        k(   66) = (   0.6153846  -0.1538462   0.7692308), wk =   0.0436959
        k(   67) = (   0.5384615  -0.0769231   0.6923077), wk =   0.0436959
        k(   68) = (   0.4615385   0.0000000   0.6153846), wk =   0.0218480
        k(   69) = (  -0.1538462   0.7692308   0.0000000), wk =   0.0218480
        k(   70) = (   0.7692308  -0.1538462   0.9230769), wk =   0.0436959
        k(   71) = (   0.6923077  -0.0769231   0.8461538), wk =   0.0436959
        k(   72) = (   0.6153846   0.0000000   0.7692308), wk =   0.0218480
        k(   73) = (   0.8461538  -0.0769231   1.0000000), wk =   0.0218480
        k(   74) = (   0.7692308   0.0000000   0.9230769), wk =   0.0218480
        k(   75) = (  -0.3076923   0.6153846   0.0000000), wk =   0.0218480
        k(   76) = (   0.6153846  -0.3076923   0.9230769), wk =   0.0436959
        k(   77) = (   0.5384615  -0.2307692   0.8461538), wk =   0.0436959
        k(   78) = (   0.6923077  -0.2307692   1.0000000), wk =   0.0218480
        k(   79) = (   0.6153846  -0.1538462   0.9230769), wk =   0.0436959
        k(   80) = (   0.5384615  -0.0769231   0.8461538), wk =   0.0436959
        k(   81) = (   0.4615385   0.0000000   0.7692308), wk =   0.0218480
        k(   82) = (   0.6923077  -0.0769231   1.0000000), wk =   0.0218480
        k(   83) = (   0.6153846   0.0000000   0.9230769), wk =   0.0218480
        k(   84) = (   0.5384615  -0.0769231   1.0000000), wk =   0.0218480

     Dense  grid:    11791 G-vectors     FFT dimensions: (  32,  32,  32)

     Largest allocated arrays     est. size (Mb)     dimensions
        Kohn-Sham Wavefunctions         0.04 Mb     (    384,    6)
        NL pseudopotentials             0.05 Mb     (    384,    8)
        Each V/rho on FFT grid          0.12 Mb     (   8192)
        Each G-vector array             0.02 Mb     (   2948)
        G-vector shells                 0.00 Mb     (    168)
     Largest temporary arrays     est. size (Mb)     dimensions
        Auxiliary wavefunctions         0.14 Mb     (    384,   24)
        Each subspace H/S matrix        0.01 Mb     (  24,  24)
        Each <psi_i|beta_j> matrix      0.00 Mb     (      8,    6)
        Arrays for rho mixing           1.00 Mb     (   8192,   8)

     Initial potential from superposition of free atoms

     starting charge    2.99771, renormalised to    3.00000
     Starting wfc are    4 randomized atomic wfcs
     Checking if some PAW data can be deallocated... 

     total cpu time spent up to now is        1.4 secs

     per-process dynamical memory:     9.5 Mb

     Self-consistent Calculation

     iteration #  1     ecut=    85.00 Ry     beta=0.70
     Davidson diagonalization with overlap
     ethr =  1.00E-02,  avg # of iterations =  5.0

     Threshold (ethr) on eigenvalues was too large:
     Diagonalizing with lowered threshold

     Davidson diagonalization with overlap
     ethr =  1.96E-04,  avg # of iterations =  2.1

     total cpu time spent up to now is        4.6 secs

     total energy              =     -39.50276169 Ry
     Harris-Foulkes estimate   =     -39.50415289 Ry
     estimated scf accuracy    <       0.00559558 Ry

     iteration #  2     ecut=    85.00 Ry     beta=0.70
     Davidson diagonalization with overlap
     ethr =  1.87E-04,  avg # of iterations =  1.0

     total cpu time spent up to now is        5.8 secs

     total energy              =     -39.50272245 Ry
     Harris-Foulkes estimate   =     -39.50282783 Ry
     estimated scf accuracy    <       0.00040583 Ry

     iteration #  3     ecut=    85.00 Ry     beta=0.70
     Davidson diagonalization with overlap
     ethr =  1.35E-05,  avg # of iterations =  2.0

     total cpu time spent up to now is        7.0 secs

     total energy              =     -39.50274308 Ry
     Harris-Foulkes estimate   =     -39.50274362 Ry
     estimated scf accuracy    <       0.00000135 Ry

     iteration #  4     ecut=    85.00 Ry     beta=0.70
     Davidson diagonalization with overlap
     ethr =  4.49E-08,  avg # of iterations =  3.1

     total cpu time spent up to now is        8.4 secs

     total energy              =     -39.50274429 Ry
     Harris-Foulkes estimate   =     -39.50274433 Ry
     estimated scf accuracy    <       0.00000011 Ry

     iteration #  5     ecut=    85.00 Ry     beta=0.70
     Davidson diagonalization with overlap
     ethr =  3.56E-09,  avg # of iterations =  1.2

     total cpu time spent up to now is        9.5 secs

     End of self-consistent calculation

          k = 0.0000 0.0000 0.0000 (  1459 PWs)   bands (ev):

    -3.2244  20.5705  20.5705  22.0480  22.0481  22.0481

          k =-0.0769 0.0769-0.0769 (  1456 PWs)   bands (ev):

    -3.0633  18.2073  20.0585  20.0585  22.7088  22.8068

          k =-0.1538 0.1538-0.1538 (  1447 PWs)   bands (ev):

    -2.5810  15.0964  19.3898  19.3898  22.5760  23.9489

          k =-0.2308 0.2308-0.2308 (  1459 PWs)   bands (ev):

    -1.7808  12.0971  18.9299  18.9299  22.3442  23.0512

          k =-0.3077 0.3077-0.3077 (  1453 PWs)   bands (ev):

    -0.6678   9.3065  18.7247  18.7247  21.7125  21.7125

          k =-0.3846 0.3846-0.3846 (  1471 PWs)   bands (ev):

     0.7508   6.7607  18.7849  18.7849  20.5851  20.5851

          k =-0.4615 0.4615-0.4615 (  1474 PWs)   bands (ev):

     2.4639   4.4820  19.1138  19.1138  19.7168  19.7168

          k = 0.0000 0.1538 0.0000 (  1455 PWs)   bands (ev):

    -3.0096  19.0076  19.0076  19.3002  21.5558  23.9227

          k =-0.0769 0.2308-0.0769 (  1444 PWs)   bands (ev):

    -2.6345  16.2008  18.1749  19.3954  21.8768  23.2023

          k =-0.1538 0.3077-0.1538 (  1451 PWs)   bands (ev):

    -1.9404  13.1850  17.6007  19.0689  21.2866  23.4692

          k =-0.2308 0.3846-0.2308 (  1462 PWs)   bands (ev):

    -0.9320  10.3339  17.2942  18.8259  19.8013  23.8177

          k =-0.3077 0.4615-0.3077 (  1463 PWs)   bands (ev):

     0.3843   7.7108  17.2586  18.5232  18.8453  22.6420

          k =-0.3846 0.5385-0.3846 (  1464 PWs)   bands (ev):

     1.9993   5.3446  17.4953  17.5503  19.0969  21.6987

          k = 0.5385-0.3846 0.5385 (  1474 PWs)   bands (ev):

     3.2245   3.9310  16.8419  18.0052  19.6382  21.0144

          k = 0.4615-0.3077 0.4615 (  1469 PWs)   bands (ev):

     1.4286   6.1025  16.4137  18.7865  20.4546  20.5976

          k = 0.3846-0.2308 0.3846 (  1459 PWs)   bands (ev):

    -0.0882   8.5554  16.2682  19.8204  20.4632  21.5328

          k = 0.3077-0.1538 0.3077 (  1462 PWs)   bands (ev):

    -1.3027  11.2535  16.4076  20.4986  21.1918  22.8302

          k = 0.2308-0.0769 0.2308 (  1458 PWs)   bands (ev):

    -2.2070  14.1470  16.8437  20.8335  22.5419  23.3667

          k = 0.1538 0.0000 0.1538 (  1446 PWs)   bands (ev):

    -2.7952  16.9096  17.8031  20.9880  22.2962  23.2522

          k = 0.0000 0.3077 0.0000 (  1447 PWs)   bands (ev):

    -2.3671  17.2253  17.2253  17.4057  20.4492  21.0833

          k =-0.0769 0.3846-0.0769 (  1466 PWs)   bands (ev):

    -1.7807  14.4742  16.5476  17.8199  19.1815  20.7496

          k =-0.1538 0.4615-0.1538 (  1456 PWs)   bands (ev):

    -0.8792  11.6189  16.1433  17.4494  17.8202  22.3115

          k =-0.2308 0.5385-0.2308 (  1469 PWs)   bands (ev):

     0.3314   8.9419  16.0126  16.1227  17.7259  24.3171

          k =-0.3077 0.6154-0.3077 (  1461 PWs)   bands (ev):

     1.8429   6.5019  15.0238  16.1559  17.9185  23.9443

          k = 0.6154-0.3077 0.6154 (  1473 PWs)   bands (ev):

     3.6286   4.3417  14.2071  16.5738  18.3920  23.1847

          k = 0.5385-0.2308 0.5385 (  1474 PWs)   bands (ev):

     2.4125   5.7404  13.6824  17.2662  19.1493  22.6824

          k = 0.4615-0.1538 0.4615 (  1461 PWs)   bands (ev):

     0.8028   8.0814  13.4609  18.2310  20.1808  22.4390

          k = 0.3846-0.0769 0.3846 (  1470 PWs)   bands (ev):

    -0.5095  10.6297  13.5799  19.4597  21.4626  22.4242

          k = 0.3077 0.0000 0.3077 (  1474 PWs)   bands (ev):

    -1.5150  13.0044  14.3858  20.9183  22.2357  22.9360

          k = 0.0000 0.4615 0.0000 (  1475 PWs)   bands (ev):

    -1.3028  15.7705  15.7714  15.7714  17.1495  19.2450

          k =-0.0769 0.5385-0.0769 (  1469 PWs)   bands (ev):

    -0.5099  13.1052  15.2714  15.3672  16.4972  19.6083

          k =-0.1538 0.6154-0.1538 (  1466 PWs)   bands (ev):

     0.5924  10.4292  13.8751  15.0465  16.6140  21.3317

          k =-0.2308 0.6923-0.2308 (  1468 PWs)   bands (ev):

     1.9959   7.9386  12.6609  15.0965  16.7747  23.5823

          k = 0.6923-0.2308 0.6923 (  1478 PWs)   bands (ev):

     3.6852   5.6947  11.7386  15.4214  17.1777  25.6094

          k = 0.6154-0.1538 0.6154 (  1483 PWs)   bands (ev):

     3.6932   5.6707  11.1246  16.0216  17.8605  25.0333

          k = 0.5385-0.0769 0.5385 (  1474 PWs)   bands (ev):

     1.9989   7.8477  10.8668  16.8971  18.8226  24.6995

          k = 0.4615 0.0000 0.4615 (  1464 PWs)   bands (ev):

     0.5935   9.8397  11.3576  18.0459  20.0427  24.2965

          k = 0.0000 0.6154 0.0000 (  1471 PWs)   bands (ev):

     0.1732  13.4742  14.5164  14.6770  14.6770  18.2017

          k =-0.0769 0.6923-0.0769 (  1462 PWs)   bands (ev):

     1.1647  11.8017  12.1835  14.3587  15.4949  18.7259

          k =-0.1538 0.7692-0.1538 (  1478 PWs)   bands (ev):

     2.4554   9.6033  10.5759  14.3155  15.8108  20.6399

          k = 0.7692-0.1538 0.7692 (  1474 PWs)   bands (ev):

     4.0272   7.3259   9.5390  14.5473  16.1776  23.0988

          k = 0.6923-0.0769 0.6923 (  1482 PWs)   bands (ev):

     5.2453   5.8664   8.8685  15.0545  16.7883  25.7594

          k = 0.6154 0.0000 0.6154 (  1478 PWs)   bands (ev):

     3.4908   7.4658   8.9629  15.8377  17.6741  27.3247

          k = 0.0000 0.7692 0.0000 (  1471 PWs)   bands (ev):

     2.0421  10.1257  13.6728  13.9473  13.9473  17.4536

          k =-0.0769 0.8462-0.0769 (  1477 PWs)   bands (ev):

     3.2113   8.6921  11.5438  13.8113  14.8906  18.1719

          k = 0.8462-0.0769 0.8462 (  1473 PWs)   bands (ev):

     4.6269   7.5926   9.2774  13.9503  15.4024  20.2839

          k = 0.7692 0.0000 0.7692 (  1476 PWs)   bands (ev):

     5.8866   6.9366   7.4984  14.3644  15.9752  22.9326

          k = 0.0000 0.9231 0.0000 (  1468 PWs)   bands (ev):

     4.2238   7.2014  13.2492  13.5827  13.5827  17.0655

          k = 0.9231 0.0000 0.9231 (  1480 PWs)   bands (ev):

     5.0985   6.4358  11.3440  13.6290  14.6883  17.9835

          k =-0.1538 0.3077 0.0000 (  1460 PWs)   bands (ev):

    -2.1536  14.9727  16.0948  19.9666  21.1052  21.8776

          k =-0.2308 0.3846-0.0769 (  1464 PWs)   bands (ev):

    -1.3558  12.3959  15.2224  19.4865  20.1151  22.9484

          k =-0.3077 0.4615-0.1538 (  1463 PWs)   bands (ev):

    -0.2461   9.6729  14.9432  18.0432  20.0327  23.1466

          k =-0.3846 0.5385-0.2308 (  1460 PWs)   bands (ev):

     1.1679   7.1519  14.9776  16.8657  20.1344  22.0407

          k = 0.5385-0.3846 0.6923 (  1476 PWs)   bands (ev):

     2.8744   4.8868  15.2864  15.9850  20.4711  21.1757

          k =-0.1538 0.4615 0.0000 (  1469 PWs)   bands (ev):

    -1.0908  13.4025  14.6226  17.3588  18.5125  20.6353

          k =-0.2308 0.5385-0.0769 (  1465 PWs)   bands (ev):

    -0.0886  11.0156  13.8909  15.7951  18.8965  21.9321

          k =-0.3077 0.6154-0.1538 (  1471 PWs)   bands (ev):

     1.2190   8.4752  13.7530  14.5339  19.0298  23.8475

          k = 0.6154-0.3077 0.7692 (  1467 PWs)   bands (ev):

     2.8217   6.1430  13.3804  14.1173  19.3361  23.4429

          k = 0.5385-0.2308 0.6923 (  1474 PWs)   bands (ev):

     4.0346   4.7432  12.7012  14.5986  19.8932  22.7590

          k = 0.4615-0.1538 0.6154 (  1474 PWs)   bands (ev):

     2.2570   6.8770  12.2938  15.4045  20.7065  22.3145

          k = 0.3846-0.0769 0.5385 (  1469 PWs)   bands (ev):

     0.7502   9.2412  12.2307  16.4984  21.7007  22.1248

          k = 0.3077 0.0000 0.4615 (  1460 PWs)   bands (ev):

    -0.4569  11.4236  12.8854  17.8664  21.5685  22.7354

          k =-0.1538 0.6154 0.0000 (  1466 PWs)   bands (ev):

     0.3830  12.2177  13.3388  13.8627  17.3643  19.6429

          k =-0.2308 0.6923-0.0769 (  1468 PWs)   bands (ev):

     1.5809  10.0182  12.2009  13.0456  17.9563  21.1133

          k = 0.6923-0.2308 0.8462 (  1473 PWs)   bands (ev):

     3.0729   7.6695  11.1289  13.0845  18.2919  23.3855

          k = 0.6154-0.1538 0.7692 (  1478 PWs)   bands (ev):

     4.8212   5.5529  10.3229  13.4937  18.7967  25.1209

          k = 0.5385-0.0769 0.6923 (  1477 PWs)   bands (ev):

     3.6423   6.8485   9.8665  14.2089  19.5503  24.6851

          k = 0.4615 0.0000 0.6154 (  1478 PWs)   bands (ev):

     2.0500   8.6523  10.1655  15.2142  20.5559  23.9456

          k =-0.1538 0.7692 0.0000 (  1469 PWs)   bands (ev):

     2.2489  10.3100  11.4253  12.7912  16.5887  18.9348

          k = 0.7692-0.1538 0.9231 (  1475 PWs)   bands (ev):

     3.6202   9.0201   9.5142  12.4091  17.3789  20.5953

          k = 0.6923-0.0769 0.8462 (  1473 PWs)   bands (ev):

     5.2278   7.2315   8.2867  12.6848  17.9123  23.0738

          k = 0.6154 0.0000 0.7692 (  1475 PWs)   bands (ev):

     5.3072   6.6758   8.1479  13.2974  18.6114  25.7400

          k = 0.8462-0.0769 1.0000 (  1464 PWs)   bands (ev):

     4.4256   7.4025  11.0286  12.3986  16.1993  18.5685

          k = 0.7692 0.0000 0.9231 (  1472 PWs)   bands (ev):

     5.4924   6.8424   9.2551  12.2105  17.1849  20.4188

          k =-0.3077 0.6154 0.0000 (  1478 PWs)   bands (ev):

     1.0104  10.2363  11.7048  14.3137  20.4994  22.2024

          k = 0.6154-0.3077 0.9231 (  1477 PWs)   bands (ev):

     2.4096   8.2434  11.2223  13.1144  21.1788  23.0784

          k = 0.5385-0.2308 0.8462 (  1473 PWs)   bands (ev):

     4.0933   6.0733  11.4214  12.2565  21.5934  22.3929

          k = 0.6923-0.2308 1.0000 (  1475 PWs)   bands (ev):

     2.8675   9.4444  10.6035  11.3123  19.7441  21.6049

          k = 0.6154-0.1538 0.9231 (  1475 PWs)   bands (ev):

     4.4339   7.6378   9.8264  10.8055  20.6418  23.4536

          k = 0.5385-0.0769 0.8462 (  1480 PWs)   bands (ev):

     5.6274   6.2640   9.2331  11.1953  21.2979  24.2109

          k = 0.4615 0.0000 0.7692 (  1476 PWs)   bands (ev):

     3.8920   7.8613   9.3368  11.9951  22.1030  23.2543

          k = 0.6923-0.0769 1.0000 (  1476 PWs)   bands (ev):

     5.0292   7.9900   9.0484  10.6298  19.3608  21.2798

          k = 0.6154 0.0000 0.9231 (  1473 PWs)   bands (ev):

     6.2811   7.3101   7.8124  10.5332  20.4574  23.3493

          k = 0.5385-0.0769 1.0000 (  1462 PWs)   bands (ev):

     6.0280   7.4659   8.6156   9.4473  22.8870  23.7299

     the Fermi energy is     7.8521 ev

!    total energy              =     -39.50274428 Ry
     Harris-Foulkes estimate   =     -39.50274430 Ry
     estimated scf accuracy    <       0.00000005 Ry

     total all-electron energy =      -485.645526 Ry

     The total energy is the sum of the following terms:

     one-electron contribution =       3.16863629 Ry
     hartree contribution      =       0.00578164 Ry
     xc contribution           =      -3.03160096 Ry
     ewald contribution        =      -5.40809419 Ry
     one-center paw contrib.   =     -34.23742383 Ry
     smearing contrib. (-TS)   =      -0.00004324 Ry

     convergence has been achieved in   5 iterations

     Writing output data file Al.save

     init_run     :      0.73s CPU      0.90s WALL (       1 calls)
     electrons    :      6.52s CPU      8.18s WALL (       1 calls)

     Called by init_run:
     wfcinit      :      0.30s CPU      0.41s WALL (       1 calls)
     potinit      :      0.09s CPU      0.09s WALL (       1 calls)

     Called by electrons:
     c_bands      :      5.17s CPU      6.49s WALL (       6 calls)
     sum_band     :      0.90s CPU      1.17s WALL (       6 calls)
     v_of_rho     :      0.09s CPU      0.10s WALL (       6 calls)
     newd         :      0.04s CPU      0.04s WALL (       6 calls)
     mix_rho      :      0.05s CPU      0.06s WALL (       6 calls)

     Called by c_bands:
     init_us_2    :      0.31s CPU      0.32s WALL (    1092 calls)
     cegterg      :      4.90s CPU      6.15s WALL (     504 calls)

     Called by *egterg:
     h_psi        :      3.85s CPU      4.91s WALL (    1794 calls)
     s_psi        :      0.07s CPU      0.07s WALL (    1794 calls)
     g_psi        :      0.05s CPU      0.08s WALL (    1206 calls)
     cdiaghg      :      0.48s CPU      0.52s WALL (    1626 calls)

     Called by h_psi:
     add_vuspsi   :      0.08s CPU      0.09s WALL (    1794 calls)

     General routines
     calbec       :      0.19s CPU      0.27s WALL (    2298 calls)
     fft          :      0.03s CPU      0.05s WALL (      80 calls)
     fftw         :      3.45s CPU      4.51s WALL (   19508 calls)
     davcio       :      0.03s CPU      0.07s WALL (    1596 calls)

     Parallel routines
     fft_scatter  :      1.77s CPU      2.49s WALL (   19588 calls)

     PAW routines
     PAW_pot      :      0.33s CPU      0.36s WALL (       6 calls)
     PAW_ddot     :      0.04s CPU      0.05s WALL (      22 calls)
     PAW_symme    :      0.00s CPU      0.00s WALL (      12 calls)

     PWSCF        :     8.06s CPU        10.04s WALL


   This run was terminated on:   2:21:55  12Jul2015            

=------------------------------------------------------------------------------=
   JOB DONE.
=------------------------------------------------------------------------------=
