
     Program PWSCF v.5.0.2 (svn rev. 9656) starts on 12Jul2015 at  2:19:45 

     This program is part of the open-source Quantum ESPRESSO suite
     for quantum simulation of materials; please cite
         "P. Giannozzi et al., J. Phys.:Condens. Matter 21 395502 (2009);
          URL http://www.quantum-espresso.org", 
     in publications or presentations arising from this work. More details at
     http://www.quantum-espresso.org/quote.php

     Parallel version (MPI), running on     4 processors
     R & G space division:  proc/nbgrp/npool/nimage =       4

     Current dimensions of program PWSCF are:
     Max number of different atomic species (ntypx) = 10
     Max number of k-points (npk) =  40000
     Max angular momentum in pseudopotentials (lmaxx) =  3
     Waiting for input...
     Reading input from standard input
               file Al.pbe-n-kjpaw_psl.0.1.UPF: wavefunction(s)  3S renormalized

     Subspace diagonalization in iterative solution of the eigenvalue problem:
     a serial algorithm will be used


     Parallelization info
     --------------------
     sticks:   dense  smooth     PW     G-vecs:    dense   smooth      PW
     Min         162     162     49                 2693     2693     471
     Max         163     163     50                 2695     2695     474
     Sum         649     649    199                10777    10777    1893



     bravais-lattice index     =            2
     lattice parameter (alat)  =       7.6300  a.u.
     unit-cell volume          =     111.0487 (a.u.)^3
     number of atoms/cell      =            1
     number of atomic types    =            1
     number of electrons       =         3.00
     number of Kohn-Sham states=            6
     kinetic-energy cutoff     =      80.0000  Ry
     charge density cutoff     =     320.0000  Ry
     convergence threshold     =      1.0E-07
     mixing beta               =       0.7000
     number of iterations used =            8  plain     mixing
     Exchange-correlation      =  SLA  PW   PBX  PBC ( 1 4 3 4 0)
     EXX-fraction              =        0.00

     celldm(1)=   7.630000  celldm(2)=   0.000000  celldm(3)=   0.000000
     celldm(4)=   0.000000  celldm(5)=   0.000000  celldm(6)=   0.000000

     crystal axes: (cart. coord. in units of alat)
               a(1) = (  -0.500000   0.000000   0.500000 )  
               a(2) = (   0.000000   0.500000   0.500000 )  
               a(3) = (  -0.500000   0.500000   0.000000 )  

     reciprocal axes: (cart. coord. in units 2 pi/alat)
               b(1) = ( -1.000000 -1.000000  1.000000 )  
               b(2) = (  1.000000  1.000000  1.000000 )  
               b(3) = ( -1.000000  1.000000 -1.000000 )  


     PseudoPot. # 1 for Al read from file:
     ./Al.pbe-n-kjpaw_psl.0.1.UPF
     MD5 check sum: 023d9faf819c76fc4df1f064efe7b7b2
     Pseudo is Projector augmented-wave + core cor, Zval =  3.0
     Generated using "atomic" code by A. Dal Corso  v.5.0.2 svn rev. 9415
     Shape of augmentation charge: PSQ
     Using radial grid of 1135 points,  4 beta functions with: 
                l(1) =   0
                l(2) =   0
                l(3) =   1
                l(4) =   1
     Q(r) pseudized with 0 coefficients 


     atomic species   valence    mass     pseudopotential
        Al             3.00    26.98154     Al( 1.00)

     48 Sym. Ops., with inversion, found



   Cartesian axes

     site n.     atom                  positions (alat units)
         1           Al  tau(   1) = (   0.0000000   0.0000000   0.0000000  )

     number of k points=    47  gaussian smearing, width (Ry)=  0.0030
                       cart. coord. in units 2pi/alat
        k(    1) = (   0.0000000   0.0000000   0.0000000), wk =   0.0020000
        k(    2) = (  -0.1000000   0.1000000  -0.1000000), wk =   0.0160000
        k(    3) = (  -0.2000000   0.2000000  -0.2000000), wk =   0.0160000
        k(    4) = (  -0.3000000   0.3000000  -0.3000000), wk =   0.0160000
        k(    5) = (  -0.4000000   0.4000000  -0.4000000), wk =   0.0160000
        k(    6) = (   0.5000000  -0.5000000   0.5000000), wk =   0.0080000
        k(    7) = (   0.0000000   0.2000000   0.0000000), wk =   0.0120000
        k(    8) = (  -0.1000000   0.3000000  -0.1000000), wk =   0.0480000
        k(    9) = (  -0.2000000   0.4000000  -0.2000000), wk =   0.0480000
        k(   10) = (  -0.3000000   0.5000000  -0.3000000), wk =   0.0480000
        k(   11) = (   0.6000000  -0.4000000   0.6000000), wk =   0.0480000
        k(   12) = (   0.5000000  -0.3000000   0.5000000), wk =   0.0480000
        k(   13) = (   0.4000000  -0.2000000   0.4000000), wk =   0.0480000
        k(   14) = (   0.3000000  -0.1000000   0.3000000), wk =   0.0480000
        k(   15) = (   0.2000000   0.0000000   0.2000000), wk =   0.0240000
        k(   16) = (   0.0000000   0.4000000   0.0000000), wk =   0.0120000
        k(   17) = (  -0.1000000   0.5000000  -0.1000000), wk =   0.0480000
        k(   18) = (  -0.2000000   0.6000000  -0.2000000), wk =   0.0480000
        k(   19) = (   0.7000000  -0.3000000   0.7000000), wk =   0.0480000
        k(   20) = (   0.6000000  -0.2000000   0.6000000), wk =   0.0480000
        k(   21) = (   0.5000000  -0.1000000   0.5000000), wk =   0.0480000
        k(   22) = (   0.4000000   0.0000000   0.4000000), wk =   0.0240000
        k(   23) = (   0.0000000   0.6000000   0.0000000), wk =   0.0120000
        k(   24) = (  -0.1000000   0.7000000  -0.1000000), wk =   0.0480000
        k(   25) = (   0.8000000  -0.2000000   0.8000000), wk =   0.0480000
        k(   26) = (   0.7000000  -0.1000000   0.7000000), wk =   0.0480000
        k(   27) = (   0.6000000  -0.0000000   0.6000000), wk =   0.0240000
        k(   28) = (   0.0000000   0.8000000   0.0000000), wk =   0.0120000
        k(   29) = (   0.9000000  -0.1000000   0.9000000), wk =   0.0480000
        k(   30) = (   0.8000000   0.0000000   0.8000000), wk =   0.0240000
        k(   31) = (   0.0000000  -1.0000000   0.0000000), wk =   0.0060000
        k(   32) = (  -0.2000000   0.4000000   0.0000000), wk =   0.0480000
        k(   33) = (  -0.3000000   0.5000000  -0.1000000), wk =   0.0960000
        k(   34) = (   0.6000000  -0.4000000   0.8000000), wk =   0.0960000
        k(   35) = (   0.5000000  -0.3000000   0.7000000), wk =   0.0480000
        k(   36) = (  -0.2000000   0.6000000   0.0000000), wk =   0.0480000
        k(   37) = (   0.7000000  -0.3000000   0.9000000), wk =   0.0960000
        k(   38) = (   0.6000000  -0.2000000   0.8000000), wk =   0.0960000
        k(   39) = (   0.5000000  -0.1000000   0.7000000), wk =   0.0960000
        k(   40) = (   0.4000000   0.0000000   0.6000000), wk =   0.0480000
        k(   41) = (   0.8000000  -0.2000000   1.0000000), wk =   0.0480000
        k(   42) = (   0.7000000  -0.1000000   0.9000000), wk =   0.0960000
        k(   43) = (   0.6000000   0.0000000   0.8000000), wk =   0.0480000
        k(   44) = (  -0.2000000  -1.0000000   0.0000000), wk =   0.0240000
        k(   45) = (   0.6000000  -0.2000000   1.0000000), wk =   0.0480000
        k(   46) = (   0.5000000  -0.1000000   0.9000000), wk =   0.0480000
        k(   47) = (  -0.4000000  -1.0000000   0.0000000), wk =   0.0240000

     Dense  grid:    10777 G-vectors     FFT dimensions: (  32,  32,  32)

     Largest allocated arrays     est. size (Mb)     dimensions
        Kohn-Sham Wavefunctions         0.03 Mb     (    344,    6)
        NL pseudopotentials             0.04 Mb     (    344,    8)
        Each V/rho on FFT grid          0.12 Mb     (   8192)
        Each G-vector array             0.02 Mb     (   2694)
        G-vector shells                 0.00 Mb     (    158)
     Largest temporary arrays     est. size (Mb)     dimensions
        Auxiliary wavefunctions         0.13 Mb     (    344,   24)
        Each subspace H/S matrix        0.01 Mb     (  24,  24)
        Each <psi_i|beta_j> matrix      0.00 Mb     (      8,    6)
        Arrays for rho mixing           1.00 Mb     (   8192,   8)

     Initial potential from superposition of free atoms

     starting charge    2.99771, renormalised to    3.00000
     Starting wfc are    4 randomized atomic wfcs
     Checking if some PAW data can be deallocated... 

     total cpu time spent up to now is        1.2 secs

     per-process dynamical memory:     9.5 Mb

     Self-consistent Calculation

     iteration #  1     ecut=    80.00 Ry     beta=0.70
     Davidson diagonalization with overlap
     ethr =  1.00E-02,  avg # of iterations =  5.0

     Threshold (ethr) on eigenvalues was too large:
     Diagonalizing with lowered threshold

     Davidson diagonalization with overlap
     ethr =  2.01E-04,  avg # of iterations =  2.3

     total cpu time spent up to now is        3.1 secs

     total energy              =     -39.50151441 Ry
     Harris-Foulkes estimate   =     -39.50297430 Ry
     estimated scf accuracy    <       0.00570465 Ry

     iteration #  2     ecut=    80.00 Ry     beta=0.70
     Davidson diagonalization with overlap
     ethr =  1.90E-04,  avg # of iterations =  1.0

     total cpu time spent up to now is        3.8 secs

     total energy              =     -39.50148341 Ry
     Harris-Foulkes estimate   =     -39.50158951 Ry
     estimated scf accuracy    <       0.00040561 Ry

     iteration #  3     ecut=    80.00 Ry     beta=0.70
     Davidson diagonalization with overlap
     ethr =  1.35E-05,  avg # of iterations =  1.8

     total cpu time spent up to now is        4.5 secs

     total energy              =     -39.50150535 Ry
     Harris-Foulkes estimate   =     -39.50150593 Ry
     estimated scf accuracy    <       0.00000151 Ry

     iteration #  4     ecut=    80.00 Ry     beta=0.70
     Davidson diagonalization with overlap
     ethr =  5.05E-08,  avg # of iterations =  3.0

     total cpu time spent up to now is        5.4 secs

     End of self-consistent calculation

          k = 0.0000 0.0000 0.0000 (  1363 PWs)   bands (ev):

    -3.2251  20.5696  20.5696  22.0467  22.0467  22.0467

          k =-0.1000 0.1000-0.1000 (  1351 PWs)   bands (ev):

    -2.9529  17.2743  19.8423  19.8423  22.7099  23.1800

          k =-0.2000 0.2000-0.2000 (  1345 PWs)   bands (ev):

    -2.1394  13.2739  19.0834  19.0835  22.4262  23.5895

          k =-0.3000 0.3000-0.3000 (  1356 PWs)   bands (ev):

    -0.7936   9.5741  18.7324  18.7324  21.8374  21.8374

          k =-0.4000 0.4000-0.4000 (  1350 PWs)   bands (ev):

     1.0697   6.2820  18.8282  18.8282  20.3892  20.3892

          k = 0.5000-0.5000 0.5000 (  1350 PWs)   bands (ev):

     3.3252   3.5485  19.3516  19.3516  19.4095  19.4095

          k = 0.0000 0.2000 0.0000 (  1343 PWs)   bands (ev):

    -2.8623  18.4428  18.4428  18.7228  21.2597  23.8780

          k =-0.1000 0.3000-0.1000 (  1344 PWs)   bands (ev):

    -2.2295  14.7444  17.4649  18.8672  21.2888  22.0853

          k =-0.2000 0.4000-0.2000 (  1342 PWs)   bands (ev):

    -1.0618  10.9699  16.9400  18.5359  19.2696  24.1268

          k =-0.3000 0.5000-0.3000 (  1341 PWs)   bands (ev):

     0.6280   7.5516  16.8743  17.5777  18.5542  23.0953

          k = 0.6000-0.4000 0.6000 (  1346 PWs)   bands (ev):

     2.8181   4.5690  16.3812  17.2701  18.9934  21.9579

          k = 0.5000-0.3000 0.5000 (  1348 PWs)   bands (ev):

     2.0354   5.5094  15.6567  18.1281  19.9098  21.2603

          k = 0.4000-0.2000 0.4000 (  1343 PWs)   bands (ev):

     0.0078   8.6398  15.4175  19.4380  21.0161  21.2814

          k = 0.3000-0.1000 0.3000 (  1351 PWs)   bands (ev):

    -1.5098  12.1664  15.6817  20.9866  21.3692  23.0485

          k = 0.2000 0.0000 0.2000 (  1353 PWs)   bands (ev):

    -2.5004  15.6684  16.7609  21.2747  22.3686  23.5367

          k = 0.0000 0.4000 0.0000 (  1343 PWs)   bands (ev):

    -1.7793  16.3096  16.3096  16.3807  18.6957  19.7192

          k =-0.1000 0.5000-0.1000 (  1339 PWs)   bands (ev):

    -0.7938  12.7702  15.6197  16.3416  17.0496  20.4427

          k =-0.2000 0.6000-0.2000 (  1345 PWs)   bands (ev):

     0.7154   9.2917  14.4900  15.3941  17.0605  22.9568

          k = 0.7000-0.3000 0.7000 (  1344 PWs)   bands (ev):

     2.7295   6.1880  13.1006  15.6326  17.3907  24.9783

          k = 0.6000-0.2000 0.6000 (  1350 PWs)   bands (ev):

     3.5102   5.2424  12.2083  16.3358  18.1887  24.1509

          k = 0.5000-0.1000 0.5000 (  1340 PWs)   bands (ev):

     1.3333   8.1543  11.8586  17.5032  19.4589  23.7458

          k = 0.4000 0.0000 0.4000 (  1344 PWs)   bands (ev):

    -0.3479  11.0106  12.5019  19.1261  21.1509  23.3756

          k = 0.0000 0.6000 0.0000 (  1335 PWs)   bands (ev):

     0.0068  13.8273  14.6224  14.7692  14.7692  18.2934

          k =-0.1000 0.7000-0.1000 (  1337 PWs)   bands (ev):

     1.3297  11.3797  11.8246  14.3854  15.6889  19.2727

          k = 0.8000-0.2000 0.8000 (  1336 PWs)   bands (ev):

     3.1540   8.2646  10.2128  14.4664  16.0557  22.1188

          k = 0.7000-0.1000 0.7000 (  1333 PWs)   bands (ev):

     5.3264   5.5977   9.1754  15.0125  16.7376  25.5059

          k = 0.6000-0.0000 0.6000 (  1332 PWs)   bands (ev):

     3.1666   7.6664   9.1691  16.0248  17.8808  27.0712

          k = 0.0000 0.8000 0.0000 (  1347 PWs)   bands (ev):

     2.4588   9.4999  13.5531  13.8444  13.8444  17.3451

          k = 0.9000-0.1000 0.9000 (  1339 PWs)   bands (ev):

     4.0609   7.7660  10.7880  13.7686  15.0031  18.6551

          k = 0.8000 0.0000 0.8000 (  1336 PWs)   bands (ev):

     5.6648   6.9838   8.0198  14.1575  15.7120  21.8280

          k = 0.0000-1.0000 0.0000 (  1338 PWs)   bands (ev):

     4.9990   6.3320  13.1950  13.5363  13.5363  17.0156

          k =-0.2000 0.4000 0.0000 (  1348 PWs)   bands (ev):

    -1.4201  13.3502  14.6533  18.9881  19.9400  21.7633

          k =-0.3000 0.5000-0.1000 (  1345 PWs)   bands (ev):

    -0.0812  10.1678  13.7864  17.0059  20.2664  23.3237

          k = 0.6000-0.4000 0.8000 (  1342 PWs)   bands (ev):

     1.7718   6.9448  13.8126  15.4835  20.4633  22.1488

          k = 0.5000-0.3000 0.7000 (  1346 PWs)   bands (ev):

     3.9973   4.2525  14.1966  14.6055  20.8986  21.2789

          k =-0.2000 0.6000 0.0000 (  1339 PWs)   bands (ev):

     0.3615  11.6816  13.0121  14.2407  18.3641  20.4569

          k = 0.7000-0.3000 0.9000 (  1340 PWs)   bands (ev):

     2.0316   8.8190  12.2126  12.7480  19.0628  22.6523

          k = 0.6000-0.2000 0.8000 (  1338 PWs)   bands (ev):

     4.1863   5.9244  11.1842  12.9063  19.6093  24.2031

          k = 0.5000-0.1000 0.7000 (  1345 PWs)   bands (ev):

     3.4239   6.8007  10.5146  13.7802  20.5346  23.4967

          k = 0.4000 0.0000 0.6000 (  1339 PWs)   bands (ev):

     1.4205   9.3381  10.8476  15.1591  21.8502  22.6256

          k = 0.8000-0.2000 1.0000 (  1336 PWs)   bands (ev):

     2.8069   9.8157  10.6775  12.1520  17.3861  19.5836

          k = 0.7000-0.1000 0.9000 (  1337 PWs)   bands (ev):

     4.7441   8.0520   8.5631  11.8750  18.4254  22.1092

          k = 0.6000 0.0000 0.8000 (  1345 PWs)   bands (ev):

     5.5520   6.6649   8.1348  12.5599  19.3020  25.4908

          k =-0.2000-1.0000 0.0000 (  1338 PWs)   bands (ev):

     5.3318   6.6805  10.3424  11.8085  17.0578  19.2805

          k = 0.6000-0.2000 1.0000 (  1336 PWs)   bands (ev):

     3.8457   8.3350   9.7463  11.0055  21.7052  23.0877

          k = 0.5000-0.1000 0.9000 (  1344 PWs)   bands (ev):

     5.9868   6.2328   9.5332  10.2085  22.6867  23.1359

          k =-0.4000-1.0000 0.0000 (  1342 PWs)   bands (ev):

     6.3314   7.6680   8.0007   9.6370  21.3869  22.9912

     the Fermi energy is     8.0612 ev

!    total energy              =     -39.50150646 Ry
     Harris-Foulkes estimate   =     -39.50150650 Ry
     estimated scf accuracy    <       0.00000009 Ry

     total all-electron energy =      -485.644288 Ry

     The total energy is the sum of the following terms:

     one-electron contribution =       3.16915587 Ry
     hartree contribution      =       0.00559576 Ry
     xc contribution           =      -3.03119045 Ry
     ewald contribution        =      -5.40809419 Ry
     one-center paw contrib.   =     -34.23688487 Ry
     smearing contrib. (-TS)   =      -0.00008858 Ry

     convergence has been achieved in   4 iterations

     Writing output data file Al.save

     init_run     :      0.57s CPU      0.73s WALL (       1 calls)
     electrons    :      3.20s CPU      4.22s WALL (       1 calls)

     Called by init_run:
     wfcinit      :      0.17s CPU      0.24s WALL (       1 calls)
     potinit      :      0.08s CPU      0.11s WALL (       1 calls)

     Called by electrons:
     c_bands      :      2.43s CPU      3.19s WALL (       5 calls)
     sum_band     :      0.44s CPU      0.61s WALL (       5 calls)
     v_of_rho     :      0.08s CPU      0.08s WALL (       5 calls)
     newd         :      0.03s CPU      0.03s WALL (       5 calls)
     mix_rho      :      0.03s CPU      0.03s WALL (       5 calls)

     Called by c_bands:
     init_us_2    :      0.13s CPU      0.14s WALL (     517 calls)
     cegterg      :      2.31s CPU      3.05s WALL (     235 calls)

     Called by *egterg:
     h_psi        :      1.85s CPU      2.45s WALL (     898 calls)
     s_psi        :      0.03s CPU      0.04s WALL (     898 calls)
     g_psi        :      0.02s CPU      0.04s WALL (     616 calls)
     cdiaghg      :      0.24s CPU      0.26s WALL (     804 calls)

     Called by h_psi:
     add_vuspsi   :      0.04s CPU      0.04s WALL (     898 calls)

     General routines
     calbec       :      0.09s CPU      0.14s WALL (    1133 calls)
     fft          :      0.03s CPU      0.05s WALL (      67 calls)
     fftw         :      1.65s CPU      2.28s WALL (    9480 calls)
     davcio       :      0.02s CPU      0.03s WALL (     752 calls)

     Parallel routines
     fft_scatter  :      0.85s CPU      1.35s WALL (    9547 calls)

     PAW routines
     PAW_pot      :      0.27s CPU      0.34s WALL (       5 calls)
     PAW_ddot     :      0.02s CPU      0.03s WALL (      12 calls)
     PAW_symme    :      0.00s CPU      0.00s WALL (      10 calls)

     PWSCF        :     4.45s CPU         5.73s WALL


   This run was terminated on:   2:19:51  12Jul2015            

=------------------------------------------------------------------------------=
   JOB DONE.
=------------------------------------------------------------------------------=
