
     Program PWSCF v.5.0.2 (svn rev. 9656) starts on 12Jul2015 at  1:32:12 

     This program is part of the open-source Quantum ESPRESSO suite
     for quantum simulation of materials; please cite
         "P. Giannozzi et al., J. Phys.:Condens. Matter 21 395502 (2009);
          URL http://www.quantum-espresso.org", 
     in publications or presentations arising from this work. More details at
     http://www.quantum-espresso.org/quote.php

     Parallel version (MPI), running on     4 processors
     R & G space division:  proc/nbgrp/npool/nimage =       4

     Current dimensions of program PWSCF are:
     Max number of different atomic species (ntypx) = 10
     Max number of k-points (npk) =  40000
     Max angular momentum in pseudopotentials (lmaxx) =  3
     Waiting for input...
     Reading input from standard input
               file Al.pbe-n-kjpaw_psl.0.1.UPF: wavefunction(s)  3S renormalized

     Subspace diagonalization in iterative solution of the eigenvalue problem:
     a serial algorithm will be used


     Parallelization info
     --------------------
     sticks:   dense  smooth     PW     G-vecs:    dense   smooth      PW
     Min         112     112     37                 1593     1593     309
     Max         113     113     38                 1594     1594     312
     Sum         451     451    151                 6375     6375    1243



     bravais-lattice index     =            2
     lattice parameter (alat)  =       7.4000  a.u.
     unit-cell volume          =     101.3060 (a.u.)^3
     number of atoms/cell      =            1
     number of atomic types    =            1
     number of electrons       =         3.00
     number of Kohn-Sham states=            6
     kinetic-energy cutoff     =      60.0000  Ry
     charge density cutoff     =     240.0000  Ry
     convergence threshold     =      1.0E-07
     mixing beta               =       0.7000
     number of iterations used =            8  plain     mixing
     Exchange-correlation      =  SLA  PW   PBX  PBC ( 1 4 3 4 0)
     EXX-fraction              =        0.00

     celldm(1)=   7.400000  celldm(2)=   0.000000  celldm(3)=   0.000000
     celldm(4)=   0.000000  celldm(5)=   0.000000  celldm(6)=   0.000000

     crystal axes: (cart. coord. in units of alat)
               a(1) = (  -0.500000   0.000000   0.500000 )  
               a(2) = (   0.000000   0.500000   0.500000 )  
               a(3) = (  -0.500000   0.500000   0.000000 )  

     reciprocal axes: (cart. coord. in units 2 pi/alat)
               b(1) = ( -1.000000 -1.000000  1.000000 )  
               b(2) = (  1.000000  1.000000  1.000000 )  
               b(3) = ( -1.000000  1.000000 -1.000000 )  


     PseudoPot. # 1 for Al read from file:
     ./Al.pbe-n-kjpaw_psl.0.1.UPF
     MD5 check sum: 023d9faf819c76fc4df1f064efe7b7b2
     Pseudo is Projector augmented-wave + core cor, Zval =  3.0
     Generated using "atomic" code by A. Dal Corso  v.5.0.2 svn rev. 9415
     Shape of augmentation charge: PSQ
     Using radial grid of 1135 points,  4 beta functions with: 
                l(1) =   0
                l(2) =   0
                l(3) =   1
                l(4) =   1
     Q(r) pseudized with 0 coefficients 


     atomic species   valence    mass     pseudopotential
        Al             3.00    26.98154     Al( 1.00)

     48 Sym. Ops., with inversion, found



   Cartesian axes

     site n.     atom                  positions (alat units)
         1           Al  tau(   1) = (   0.0000000   0.0000000   0.0000000  )

     number of k points=    84  gaussian smearing, width (Ry)=  0.0030
                       cart. coord. in units 2pi/alat
        k(    1) = (   0.0000000   0.0000000   0.0000000), wk =   0.0009103
        k(    2) = (  -0.0769231   0.0769231  -0.0769231), wk =   0.0072827
        k(    3) = (  -0.1538462   0.1538462  -0.1538462), wk =   0.0072827
        k(    4) = (  -0.2307692   0.2307692  -0.2307692), wk =   0.0072827
        k(    5) = (  -0.3076923   0.3076923  -0.3076923), wk =   0.0072827
        k(    6) = (  -0.3846154   0.3846154  -0.3846154), wk =   0.0072827
        k(    7) = (  -0.4615385   0.4615385  -0.4615385), wk =   0.0072827
        k(    8) = (   0.0000000   0.1538462   0.0000000), wk =   0.0054620
        k(    9) = (  -0.0769231   0.2307692  -0.0769231), wk =   0.0218480
        k(   10) = (  -0.1538462   0.3076923  -0.1538462), wk =   0.0218480
        k(   11) = (  -0.2307692   0.3846154  -0.2307692), wk =   0.0218480
        k(   12) = (  -0.3076923   0.4615385  -0.3076923), wk =   0.0218480
        k(   13) = (  -0.3846154   0.5384615  -0.3846154), wk =   0.0218480
        k(   14) = (   0.5384615  -0.3846154   0.5384615), wk =   0.0218480
        k(   15) = (   0.4615385  -0.3076923   0.4615385), wk =   0.0218480
        k(   16) = (   0.3846154  -0.2307692   0.3846154), wk =   0.0218480
        k(   17) = (   0.3076923  -0.1538462   0.3076923), wk =   0.0218480
        k(   18) = (   0.2307692  -0.0769231   0.2307692), wk =   0.0218480
        k(   19) = (   0.1538462   0.0000000   0.1538462), wk =   0.0109240
        k(   20) = (   0.0000000   0.3076923   0.0000000), wk =   0.0054620
        k(   21) = (  -0.0769231   0.3846154  -0.0769231), wk =   0.0218480
        k(   22) = (  -0.1538462   0.4615385  -0.1538462), wk =   0.0218480
        k(   23) = (  -0.2307692   0.5384615  -0.2307692), wk =   0.0218480
        k(   24) = (  -0.3076923   0.6153846  -0.3076923), wk =   0.0218480
        k(   25) = (   0.6153846  -0.3076923   0.6153846), wk =   0.0218480
        k(   26) = (   0.5384615  -0.2307692   0.5384615), wk =   0.0218480
        k(   27) = (   0.4615385  -0.1538462   0.4615385), wk =   0.0218480
        k(   28) = (   0.3846154  -0.0769231   0.3846154), wk =   0.0218480
        k(   29) = (   0.3076923   0.0000000   0.3076923), wk =   0.0109240
        k(   30) = (   0.0000000   0.4615385   0.0000000), wk =   0.0054620
        k(   31) = (  -0.0769231   0.5384615  -0.0769231), wk =   0.0218480
        k(   32) = (  -0.1538462   0.6153846  -0.1538462), wk =   0.0218480
        k(   33) = (  -0.2307692   0.6923077  -0.2307692), wk =   0.0218480
        k(   34) = (   0.6923077  -0.2307692   0.6923077), wk =   0.0218480
        k(   35) = (   0.6153846  -0.1538462   0.6153846), wk =   0.0218480
        k(   36) = (   0.5384615  -0.0769231   0.5384615), wk =   0.0218480
        k(   37) = (   0.4615385   0.0000000   0.4615385), wk =   0.0109240
        k(   38) = (   0.0000000   0.6153846   0.0000000), wk =   0.0054620
        k(   39) = (  -0.0769231   0.6923077  -0.0769231), wk =   0.0218480
        k(   40) = (  -0.1538462   0.7692308  -0.1538462), wk =   0.0218480
        k(   41) = (   0.7692308  -0.1538462   0.7692308), wk =   0.0218480
        k(   42) = (   0.6923077  -0.0769231   0.6923077), wk =   0.0218480
        k(   43) = (   0.6153846   0.0000000   0.6153846), wk =   0.0109240
        k(   44) = (   0.0000000   0.7692308   0.0000000), wk =   0.0054620
        k(   45) = (  -0.0769231   0.8461538  -0.0769231), wk =   0.0218480
        k(   46) = (   0.8461538  -0.0769231   0.8461538), wk =   0.0218480
        k(   47) = (   0.7692308   0.0000000   0.7692308), wk =   0.0109240
        k(   48) = (   0.0000000   0.9230769   0.0000000), wk =   0.0054620
        k(   49) = (   0.9230769   0.0000000   0.9230769), wk =   0.0109240
        k(   50) = (  -0.1538462   0.3076923   0.0000000), wk =   0.0218480
        k(   51) = (  -0.2307692   0.3846154  -0.0769231), wk =   0.0436959
        k(   52) = (  -0.3076923   0.4615385  -0.1538462), wk =   0.0436959
        k(   53) = (  -0.3846154   0.5384615  -0.2307692), wk =   0.0436959
        k(   54) = (   0.5384615  -0.3846154   0.6923077), wk =   0.0436959
        k(   55) = (  -0.1538462   0.4615385   0.0000000), wk =   0.0218480
        k(   56) = (  -0.2307692   0.5384615  -0.0769231), wk =   0.0436959
        k(   57) = (  -0.3076923   0.6153846  -0.1538462), wk =   0.0436959
        k(   58) = (   0.6153846  -0.3076923   0.7692308), wk =   0.0436959
        k(   59) = (   0.5384615  -0.2307692   0.6923077), wk =   0.0436959
        k(   60) = (   0.4615385  -0.1538462   0.6153846), wk =   0.0436959
        k(   61) = (   0.3846154  -0.0769231   0.5384615), wk =   0.0436959
        k(   62) = (   0.3076923   0.0000000   0.4615385), wk =   0.0218480
        k(   63) = (  -0.1538462   0.6153846   0.0000000), wk =   0.0218480
        k(   64) = (  -0.2307692   0.6923077  -0.0769231), wk =   0.0436959
        k(   65) = (   0.6923077  -0.2307692   0.8461538), wk =   0.0436959
        k(   66) = (   0.6153846  -0.1538462   0.7692308), wk =   0.0436959
        k(   67) = (   0.5384615  -0.0769231   0.6923077), wk =   0.0436959
        k(   68) = (   0.4615385   0.0000000   0.6153846), wk =   0.0218480
        k(   69) = (  -0.1538462   0.7692308   0.0000000), wk =   0.0218480
        k(   70) = (   0.7692308  -0.1538462   0.9230769), wk =   0.0436959
        k(   71) = (   0.6923077  -0.0769231   0.8461538), wk =   0.0436959
        k(   72) = (   0.6153846   0.0000000   0.7692308), wk =   0.0218480
        k(   73) = (   0.8461538  -0.0769231   1.0000000), wk =   0.0218480
        k(   74) = (   0.7692308   0.0000000   0.9230769), wk =   0.0218480
        k(   75) = (  -0.3076923   0.6153846   0.0000000), wk =   0.0218480
        k(   76) = (   0.6153846  -0.3076923   0.9230769), wk =   0.0436959
        k(   77) = (   0.5384615  -0.2307692   0.8461538), wk =   0.0436959
        k(   78) = (   0.6923077  -0.2307692   1.0000000), wk =   0.0218480
        k(   79) = (   0.6153846  -0.1538462   0.9230769), wk =   0.0436959
        k(   80) = (   0.5384615  -0.0769231   0.8461538), wk =   0.0436959
        k(   81) = (   0.4615385   0.0000000   0.7692308), wk =   0.0218480
        k(   82) = (   0.6923077  -0.0769231   1.0000000), wk =   0.0218480
        k(   83) = (   0.6153846   0.0000000   0.9230769), wk =   0.0218480
        k(   84) = (   0.5384615  -0.0769231   1.0000000), wk =   0.0218480

     Dense  grid:     6375 G-vectors     FFT dimensions: (  25,  25,  25)

     Largest allocated arrays     est. size (Mb)     dimensions
        Kohn-Sham Wavefunctions         0.02 Mb     (    206,    6)
        NL pseudopotentials             0.03 Mb     (    206,    8)
        Each V/rho on FFT grid          0.07 Mb     (   4375)
        Each G-vector array             0.01 Mb     (   1594)
        G-vector shells                 0.00 Mb     (    113)
     Largest temporary arrays     est. size (Mb)     dimensions
        Auxiliary wavefunctions         0.08 Mb     (    206,   24)
        Each subspace H/S matrix        0.01 Mb     (  24,  24)
        Each <psi_i|beta_j> matrix      0.00 Mb     (      8,    6)
        Arrays for rho mixing           0.53 Mb     (   4375,   8)

     Initial potential from superposition of free atoms

     starting charge    2.99771, renormalised to    3.00000
     Starting wfc are    4 randomized atomic wfcs
     Checking if some PAW data can be deallocated... 

     total cpu time spent up to now is        0.9 secs

     per-process dynamical memory:     8.9 Mb

     Self-consistent Calculation

     iteration #  1     ecut=    60.00 Ry     beta=0.70
     Davidson diagonalization with overlap
     ethr =  1.00E-02,  avg # of iterations =  5.0

     Threshold (ethr) on eigenvalues was too large:
     Diagonalizing with lowered threshold

     Davidson diagonalization with overlap
     ethr =  1.95E-04,  avg # of iterations =  2.1

     total cpu time spent up to now is        2.6 secs

     total energy              =     -39.50013391 Ry
     Harris-Foulkes estimate   =     -39.50146018 Ry
     estimated scf accuracy    <       0.00557304 Ry

     iteration #  2     ecut=    60.00 Ry     beta=0.70
     Davidson diagonalization with overlap
     ethr =  1.86E-04,  avg # of iterations =  1.0

     total cpu time spent up to now is        3.2 secs

     total energy              =     -39.50007788 Ry
     Harris-Foulkes estimate   =     -39.50018575 Ry
     estimated scf accuracy    <       0.00042676 Ry

     iteration #  3     ecut=    60.00 Ry     beta=0.70
     Davidson diagonalization with overlap
     ethr =  1.42E-05,  avg # of iterations =  1.7

     total cpu time spent up to now is        3.8 secs

     total energy              =     -39.50009327 Ry
     Harris-Foulkes estimate   =     -39.50009366 Ry
     estimated scf accuracy    <       0.00000101 Ry

     iteration #  4     ecut=    60.00 Ry     beta=0.70
     Davidson diagonalization with overlap
     ethr =  3.36E-08,  avg # of iterations =  3.3

     total cpu time spent up to now is        4.5 secs

     End of self-consistent calculation

          k = 0.0000 0.0000 0.0000 (   821 PWs)   bands (ev):

    -2.8918  22.0808  22.0808  24.2759  24.2760  24.2760

          k =-0.0769 0.0769-0.0769 (   809 PWs)   bands (ev):

    -2.7206  19.7269  21.6672  21.6672  24.7368  24.9622

          k =-0.1538 0.1538-0.1538 (   800 PWs)   bands (ev):

    -2.2084  16.4660  21.0409  21.0409  24.5070  26.1655

          k =-0.2308 0.2308-0.2308 (   800 PWs)   bands (ev):

    -1.3591  13.3097  20.5873  20.5873  24.2195  24.9855

          k =-0.3077 0.3077-0.3077 (   796 PWs)   bands (ev):

    -0.1792  10.3702  20.3801  20.3801  23.5588  23.5588

          k =-0.3846 0.3846-0.3846 (   796 PWs)   bands (ev):

     1.3217   7.6876  20.4341  20.4341  22.3874  22.3874

          k =-0.4615 0.4615-0.4615 (   793 PWs)   bands (ev):

     3.1224   5.2941  20.7198  20.7198  21.5382  21.5382

          k = 0.0000 0.1538 0.0000 (   801 PWs)   bands (ev):

    -2.6636  20.6326  20.6326  20.7109  23.7453  26.0652

          k =-0.0769 0.2308-0.0769 (   803 PWs)   bands (ev):

    -2.2652  17.6151  19.7888  20.9540  24.0575  24.9612

          k =-0.1538 0.3077-0.1538 (   800 PWs)   bands (ev):

    -1.5285  14.4497  19.2014  20.6672  23.1394  25.5215

          k =-0.2308 0.3846-0.2308 (   798 PWs)   bands (ev):

    -0.4592  11.4500  18.8869  20.3808  21.6120  25.7763

          k =-0.3077 0.4615-0.3077 (   794 PWs)   bands (ev):

     0.9343   8.6875  18.8514  19.9456  20.7346  24.5360

          k =-0.3846 0.5385-0.3846 (   791 PWs)   bands (ev):

     2.6378   6.1972  19.0684  19.0984  20.8609  23.5455

          k = 0.5385-0.3846 0.5385 (   794 PWs)   bands (ev):

     3.8929   4.7448  18.3584  19.6308  21.3999  22.8263

          k = 0.4615-0.3077 0.4615 (   795 PWs)   bands (ev):

     2.0372   6.9938  17.9244  20.4499  22.2435  22.3824

          k = 0.3846-0.2308 0.3846 (   796 PWs)   bands (ev):

     0.4345   9.5766  17.7810  21.5474  22.2172  23.3643

          k = 0.3077-0.1538 0.3077 (   804 PWs)   bands (ev):

    -0.8521  12.4160  17.9340  22.2539  22.9732  24.7037

          k = 0.2308-0.0769 0.2308 (   807 PWs)   bands (ev):

    -1.8113  15.4520  18.4003  22.5131  24.5648  25.3593

          k = 0.1538 0.0000 0.1538 (   805 PWs)   bands (ev):

    -2.4358  18.3231  19.4285  22.5254  24.5789  25.3097

          k = 0.0000 0.3077 0.0000 (   805 PWs)   bands (ev):

    -1.9813  18.6860  18.8065  18.8065  22.3873  22.9595

          k =-0.0769 0.3846-0.0769 (   801 PWs)   bands (ev):

    -1.3591  15.7853  18.1046  19.2701  20.8339  22.8041

          k =-0.1538 0.4615-0.1538 (   802 PWs)   bands (ev):

    -0.4033  12.7928  17.6860  18.7812  19.6056  24.3338

          k =-0.2308 0.5385-0.2308 (   796 PWs)   bands (ev):

     0.8785   9.9791  17.5283  17.5517  19.4021  26.4244

          k =-0.3077 0.6154-0.3077 (   796 PWs)   bands (ev):

     2.4744   7.4125  16.4128  17.7030  19.5820  25.9011

          k = 0.6154-0.3077 0.6154 (   794 PWs)   bands (ev):

     4.3169   5.1784  15.5735  18.1417  20.0719  25.0971

          k = 0.5385-0.2308 0.5385 (   798 PWs)   bands (ev):

     3.0734   6.6120  15.0354  18.8699  20.8652  24.5563

          k = 0.4615-0.1538 0.4615 (   801 PWs)   bands (ev):

     1.3768   9.0698  14.8167  19.8887  21.9477  24.2719

          k = 0.3846-0.0769 0.3846 (   800 PWs)   bands (ev):

    -0.0116  11.7365  14.9671  21.1953  23.2918  24.1850

          k = 0.3077 0.0000 0.3077 (   809 PWs)   bands (ev):

    -1.0772  14.1955  15.8637  22.7758  23.8544  24.8357

          k = 0.0000 0.4615 0.0000 (   817 PWs)   bands (ev):

    -0.8522  16.9429  17.2970  17.2970  18.5932  21.3374

          k =-0.0769 0.5385-0.0769 (   806 PWs)   bands (ev):

    -0.0120  14.3281  16.7152  16.7771  17.9765  21.6107

          k =-0.1538 0.6154-0.1538 (   800 PWs)   bands (ev):

     1.1546  11.5289  15.1865  16.5441  18.1515  23.3118

          k =-0.2308 0.6923-0.2308 (   796 PWs)   bands (ev):

     2.6366   8.9160  13.9302  16.5976  18.3391  25.6378

          k = 0.6923-0.2308 0.6923 (   794 PWs)   bands (ev):

     4.4071   6.5676  12.9735  16.9386  18.7705  27.6469

          k = 0.6154-0.1538 0.6154 (   787 PWs)   bands (ev):

     4.4157   6.5391  12.3413  17.5684  19.4950  27.0270

          k = 0.5385-0.0769 0.5385 (   794 PWs)   bands (ev):

     2.6396   8.8030  12.0965  18.4885  20.5130  26.6328

          k = 0.4615 0.0000 0.4615 (   796 PWs)   bands (ev):

     1.1557  10.8560  12.6658  19.6987  21.8002  26.0503

          k = 0.0000 0.6154 0.0000 (   801 PWs)   bands (ev):

     0.7111  14.7451  15.6073  16.1582  16.1582  20.2066

          k =-0.0769 0.6923-0.0769 (   790 PWs)   bands (ev):

     1.7595  12.9267  13.4244  15.8272  16.8856  20.6718

          k =-0.1538 0.7692-0.1538 (   787 PWs)   bands (ev):

     3.1214  10.6155  11.7747  15.7831  17.2757  22.5837

          k = 0.7692-0.1538 0.7692 (   786 PWs)   bands (ev):

     4.7717   8.2526  10.6780  16.0261  17.6892  25.1262

          k = 0.6923-0.0769 0.6923 (   794 PWs)   bands (ev):

     6.0155   6.7517   9.9883  16.5571  18.3479  27.9069

          k = 0.6154 0.0000 0.6154 (   798 PWs)   bands (ev):

     4.2100   8.3553  10.1333  17.3775  19.2933  29.0675

          k = 0.0000 0.7692 0.0000 (   789 PWs)   bands (ev):

     2.6858  11.2305  14.7091  15.3988  15.3988  19.3980

          k =-0.0769 0.8462-0.0769 (   788 PWs)   bands (ev):

     3.9166   9.7205  12.6913  15.2576  16.2441  20.0794

          k = 0.8462-0.0769 0.8462 (   785 PWs)   bands (ev):

     5.3968   8.5495  10.3755  15.4031  16.8350  22.2077

          k = 0.7692 0.0000 0.7692 (   790 PWs)   bands (ev):

     6.6940   7.7259   8.6853  15.8358  17.4698  24.9506

          k = 0.0000 0.9231 0.0000 (   786 PWs)   bands (ev):

     4.9744   8.1690  14.2583  15.0195  15.0195  18.9782

          k = 0.9231 0.0000 0.9231 (   786 PWs)   bands (ev):

     5.8657   7.3903  12.4763  15.0679  16.0302  19.8775

          k =-0.1538 0.3077 0.0000 (   804 PWs)   bands (ev):

    -1.7547  16.2749  17.6509  21.5297  22.9746  23.8806

          k =-0.2308 0.3846-0.0769 (   801 PWs)   bands (ev):

    -0.9084  13.6006  16.6959  21.1671  21.8043  25.0158

          k =-0.3077 0.4615-0.1538 (   798 PWs)   bands (ev):

     0.2673  10.7472  16.3813  19.6644  21.7663  25.0771

          k =-0.3846 0.5385-0.2308 (   794 PWs)   bands (ev):

     1.7624   8.0963  16.3961  18.4457  21.8979  23.8953

          k = 0.5385-0.3846 0.6923 (   795 PWs)   bands (ev):

     3.5544   5.7205  16.6604  17.5797  22.2811  22.9616

          k =-0.1538 0.4615 0.0000 (   804 PWs)   bands (ev):

    -0.6275  14.6123  16.0898  18.9210  20.0216  22.6936

          k =-0.2308 0.5385-0.0769 (   801 PWs)   bands (ev):

     0.4340  12.1392  15.2611  17.3151  20.5056  23.9652

          k =-0.3077 0.6154-0.1538 (   798 PWs)   bands (ev):

     1.8167   9.4808  15.0303  16.0671  20.7009  25.9292

          k = 0.6154-0.3077 0.7692 (   796 PWs)   bands (ev):

     3.5045   7.0340  14.6111  15.6560  21.0463  25.3822

          k = 0.5385-0.2308 0.6923 (   797 PWs)   bands (ev):

     4.7429   5.6003  13.9676  16.0945  21.6463  24.6431

          k = 0.4615-0.1538 0.6154 (   797 PWs)   bands (ev):

     2.9112   7.8005  13.5681  16.9214  22.5175  24.1466

          k = 0.3846-0.0769 0.5385 (   800 PWs)   bands (ev):

     1.3213  10.2707  13.5331  18.0630  23.5990  23.8752

          k = 0.3077 0.0000 0.4615 (   804 PWs)   bands (ev):

     0.0441  12.5260  14.2754  19.4971  23.2367  24.8125

          k =-0.1538 0.6154 0.0000 (   806 PWs)   bands (ev):

     0.9330  13.3572  14.5444  15.4352  18.8213  21.6462

          k =-0.2308 0.6923-0.0769 (   796 PWs)   bands (ev):

     2.1990  11.0756  13.3540  14.5581  19.5111  23.1050

          k = 0.6923-0.2308 0.8462 (   794 PWs)   bands (ev):

     3.7709   8.6239  12.2984  14.5199  19.9169  25.4400

          k = 0.6154-0.1538 0.7692 (   789 PWs)   bands (ev):

     5.5711   6.4415  11.4799  14.9232  20.4719  27.1736

          k = 0.5385-0.0769 0.6923 (   792 PWs)   bands (ev):

     4.3681   7.7524  11.0294  15.6647  21.2798  26.6395

          k = 0.4615 0.0000 0.6154 (   789 PWs)   bands (ev):

     2.6938   9.6044  11.3963  16.7171  22.3513  25.7679

          k =-0.1538 0.7692 0.0000 (   792 PWs)   bands (ev):

     2.9038  11.4025  12.5176  14.2662  18.0096  20.8924

          k = 0.7692-0.1538 0.9231 (   786 PWs)   bands (ev):

     4.3464   9.9789  10.6505  13.8127  18.9012  22.5581

          k = 0.6923-0.0769 0.8462 (   787 PWs)   bands (ev):

     6.0221   8.1101   9.4039  14.0734  19.5138  25.1081

          k = 0.6154 0.0000 0.7692 (   797 PWs)   bands (ev):

     6.1065   7.5239   9.2748  14.7083  20.2749  27.8964

          k = 0.8462-0.0769 1.0000 (   784 PWs)   bands (ev):

     5.1861   8.3740  12.0970  13.8368  17.6022  20.5013

          k = 0.7692 0.0000 0.9231 (   787 PWs)   bands (ev):

     6.2796   7.7963  10.3162  13.5943  18.6963  22.3714

          k =-0.3077 0.6154 0.0000 (   795 PWs)   bands (ev):

     1.5964  11.2725  12.9909  15.7836  22.1308  24.3091

          k = 0.6154-0.3077 0.9231 (   796 PWs)   bands (ev):

     3.0729   9.2161  12.4161  14.5495  22.9333  25.0525

          k = 0.5385-0.2308 0.8462 (   795 PWs)   bands (ev):

     4.8361   6.9596  12.5291  13.7267  23.4505  24.2314

          k = 0.6923-0.2308 1.0000 (   789 PWs)   bands (ev):

     3.5555  10.4366  11.6043  12.8482  21.3403  23.6698

          k = 0.6154-0.1538 0.9231 (   788 PWs)   bands (ev):

     5.1989   8.5678  10.8341  12.2452  22.3617  25.5491

          k = 0.5385-0.0769 0.8462 (   788 PWs)   bands (ev):

     6.4191   7.1615  10.3057  12.5587  23.1084  26.1523

          k = 0.4615 0.0000 0.7692 (   788 PWs)   bands (ev):

     4.6318   8.7709  10.4771  13.3715  23.9947  25.0553

          k = 0.6923-0.0769 1.0000 (   785 PWs)   bands (ev):

     5.8185   8.9543  10.0187  12.0421  20.9381  23.3233

          k = 0.6154 0.0000 0.9231 (   784 PWs)   bands (ev):

     7.1086   8.1317   8.9184  11.8797  22.1662  25.4335

          k = 0.5385-0.0769 1.0000 (   785 PWs)   bands (ev):

     6.8592   8.3545   9.4886  10.9378  24.6710  25.7947

     the Fermi energy is     8.8346 ev

!    total energy              =     -39.50009413 Ry
     Harris-Foulkes estimate   =     -39.50009416 Ry
     estimated scf accuracy    <       0.00000005 Ry

     total all-electron energy =      -485.642876 Ry

     The total energy is the sum of the following terms:

     one-electron contribution =       3.39768371 Ry
     hartree contribution      =       0.00687008 Ry
     xc contribution           =      -3.08256461 Ry
     ewald contribution        =      -5.57618360 Ry
     one-center paw contrib.   =     -34.24588732 Ry
     smearing contrib. (-TS)   =      -0.00001238 Ry

     convergence has been achieved in   4 iterations

     Writing output data file Al.save

     init_run     :      0.51s CPU      0.54s WALL (       1 calls)
     electrons    :      3.36s CPU      3.56s WALL (       1 calls)

     Called by init_run:
     wfcinit      :      0.19s CPU      0.21s WALL (       1 calls)
     potinit      :      0.07s CPU      0.07s WALL (       1 calls)

     Called by electrons:
     c_bands      :      2.64s CPU      2.80s WALL (       5 calls)
     sum_band     :      0.44s CPU      0.46s WALL (       5 calls)
     v_of_rho     :      0.03s CPU      0.03s WALL (       5 calls)
     newd         :      0.01s CPU      0.02s WALL (       5 calls)
     mix_rho      :      0.02s CPU      0.02s WALL (       5 calls)

     Called by c_bands:
     init_us_2    :      0.14s CPU      0.12s WALL (     924 calls)
     cegterg      :      2.52s CPU      2.67s WALL (     420 calls)

     Called by *egterg:
     h_psi        :      2.04s CPU      2.17s WALL (    1599 calls)
     s_psi        :      0.04s CPU      0.03s WALL (    1599 calls)
     g_psi        :      0.02s CPU      0.03s WALL (    1095 calls)
     cdiaghg      :      0.31s CPU      0.30s WALL (    1431 calls)

     Called by h_psi:
     add_vuspsi   :      0.03s CPU      0.04s WALL (    1599 calls)

     General routines
     calbec       :      0.07s CPU      0.08s WALL (    2019 calls)
     fft          :      0.01s CPU      0.01s WALL (      67 calls)
     fftw         :      1.97s CPU      2.09s WALL (   16994 calls)
     davcio       :      0.02s CPU      0.03s WALL (    1344 calls)

     Parallel routines
     fft_scatter  :      0.67s CPU      0.73s WALL (   17061 calls)

     PAW routines
     PAW_pot      :      0.25s CPU      0.26s WALL (       5 calls)
     PAW_ddot     :      0.02s CPU      0.02s WALL (      12 calls)
     PAW_symme    :      0.00s CPU      0.00s WALL (      10 calls)

     PWSCF        :     4.60s CPU         4.87s WALL


   This run was terminated on:   1:32:17  12Jul2015            

=------------------------------------------------------------------------------=
   JOB DONE.
=------------------------------------------------------------------------------=
