
     Program PWSCF v.5.0.2 (svn rev. 9656) starts on 26Jul2015 at  2:46:47 

     This program is part of the open-source Quantum ESPRESSO suite
     for quantum simulation of materials; please cite
         "P. Giannozzi et al., J. Phys.:Condens. Matter 21 395502 (2009);
          URL http://www.quantum-espresso.org", 
     in publications or presentations arising from this work. More details at
     http://www.quantum-espresso.org/quote.php

     Parallel version (MPI), running on     4 processors
     R & G space division:  proc/nbgrp/npool/nimage =       4

     Current dimensions of program PWSCF are:
     Max number of different atomic species (ntypx) = 10
     Max number of k-points (npk) =  40000
     Max angular momentum in pseudopotentials (lmaxx) =  3
     Waiting for input...
     Reading input from standard input
               file C.pbe-rrkjus.UPF: wavefunction(s)  2S 2P renormalized

     Subspace diagonalization in iterative solution of the eigenvalue problem:
     a serial algorithm will be used


     Parallelization info
     --------------------
     sticks:   dense  smooth     PW     G-vecs:    dense   smooth      PW
     Min         211     109     34                58589    22887    3896
     Max         212     110     35                58614    22908    3915
     Sum         847     439    139               234415    91585   15621



     bravais-lattice index     =            0
     lattice parameter (alat)  =       4.6500  a.u.
     unit-cell volume          =    1044.8904 (a.u.)^3
     number of atoms/cell      =            2
     number of atomic types    =            1
     number of electrons       =         8.00
     number of Kohn-Sham states=            8
     kinetic-energy cutoff     =      75.0000  Ry
     charge density cutoff     =     560.0000  Ry
     convergence threshold     =      1.0E-08
     mixing beta               =       0.7000
     number of iterations used =            8  plain     mixing
     Exchange-correlation      =  SLA  PW   PBE  PBE ( 1 4 3 4 0)
     EXX-fraction              =        0.00

     celldm(1)=   4.650000  celldm(2)=   0.000000  celldm(3)=   0.000000
     celldm(4)=   0.000000  celldm(5)=   0.000000  celldm(6)=   0.000000

     crystal axes: (cart. coord. in units of alat)
               a(1) = (   1.000000   0.000000   0.000000 )  
               a(2) = (   0.500000   0.866025   0.000000 )  
               a(3) = (   0.000000   0.000000  12.000000 )  

     reciprocal axes: (cart. coord. in units 2 pi/alat)
               b(1) = (  1.000000 -0.577350  0.000000 )  
               b(2) = (  0.000000  1.154701  0.000000 )  
               b(3) = (  0.000000  0.000000  0.083333 )  


     PseudoPot. # 1 for C  read from file:
     ./C.pbe-rrkjus.UPF
     MD5 check sum: 00fb224312de0c5b6853bd333518df6f
     Pseudo is Ultrasoft, Zval =  4.0
     Generated by new atomic code, or converted to UPF format
     Using radial grid of  627 points,  4 beta functions with: 
                l(1) =   0
                l(2) =   0
                l(3) =   1
                l(4) =   1
     Q(r) pseudized with 0 coefficients 


     atomic species   valence    mass     pseudopotential
        C              4.00    12.00000     C ( 1.00)

     24 Sym. Ops., with inversion, found (12 have fractional translation)



   Cartesian axes

     site n.     atom                  positions (alat units)
         1           C   tau(   1) = (   0.0000000   0.0000000   0.0000000  )
         2           C   tau(   2) = (   1.0000000   0.5773503   0.0000000  )

     number of k points=    21  gaussian smearing, width (Ry)=  0.0010
                       cart. coord. in units 2pi/alat
        k(    1) = (   0.0000000   0.0000000   0.0000000), wk =   0.0118343
        k(    2) = (   0.0000000   0.0888231   0.0000000), wk =   0.0710059
        k(    3) = (   0.0000000   0.1776462   0.0000000), wk =   0.0710059
        k(    4) = (   0.0000000   0.2664694   0.0000000), wk =   0.0710059
        k(    5) = (   0.0000000   0.3552925   0.0000000), wk =   0.0710059
        k(    6) = (   0.0000000   0.4441156   0.0000000), wk =   0.0710059
        k(    7) = (   0.0000000   0.5329387   0.0000000), wk =   0.0710059
        k(    8) = (   0.0769231   0.1332347   0.0000000), wk =   0.0710059
        k(    9) = (   0.0769231   0.2220578   0.0000000), wk =   0.1420118
        k(   10) = (   0.0769231   0.3108809   0.0000000), wk =   0.1420118
        k(   11) = (   0.0769231   0.3997040   0.0000000), wk =   0.1420118
        k(   12) = (   0.0769231   0.4885272   0.0000000), wk =   0.1420118
        k(   13) = (   0.0769231  -0.5773503   0.0000000), wk =   0.0710059
        k(   14) = (   0.1538462   0.2664694   0.0000000), wk =   0.0710059
        k(   15) = (   0.1538462   0.3552925   0.0000000), wk =   0.1420118
        k(   16) = (   0.1538462   0.4441156   0.0000000), wk =   0.1420118
        k(   17) = (   0.1538462  -0.6217618   0.0000000), wk =   0.1420118
        k(   18) = (   0.2307692   0.3997040   0.0000000), wk =   0.0710059
        k(   19) = (   0.2307692  -0.6661734   0.0000000), wk =   0.1420118
        k(   20) = (   0.2307692  -0.5773503   0.0000000), wk =   0.0710059
        k(   21) = (   0.3076923  -0.6217618   0.0000000), wk =   0.0710059

     Dense  grid:   234415 G-vectors     FFT dimensions: (  36,  36, 432)

     Smooth grid:    91585 G-vectors     FFT dimensions: (  25,  25, 320)

     Largest allocated arrays     est. size (Mb)     dimensions
        Kohn-Sham Wavefunctions         0.36 Mb     (   2911,    8)
        NL pseudopotentials             0.71 Mb     (   2911,   16)
        Each V/rho on FFT grid          2.14 Mb     ( 139968)
        Each G-vector array             0.45 Mb     (  58604)
        G-vector shells                 0.13 Mb     (  17586)
     Largest temporary arrays     est. size (Mb)     dimensions
        Auxiliary wavefunctions         1.42 Mb     (   2911,   32)
        Each subspace H/S matrix        0.02 Mb     (  32,  32)
        Each <psi_i|beta_j> matrix      0.00 Mb     (     16,    8)
        Arrays for rho mixing          17.09 Mb     ( 139968,   8)

     Initial potential from superposition of free atoms

     starting charge    7.99989, renormalised to    8.00000

     negative rho (up, down):  0.254E-04 0.000E+00
     Starting wfc are    8 randomized atomic wfcs

     total cpu time spent up to now is        5.4 secs

     per-process dynamical memory:    30.6 Mb

     Self-consistent Calculation

     iteration #  1     ecut=    75.00 Ry     beta=0.70
     Davidson diagonalization with overlap
     ethr =  1.00E-02,  avg # of iterations =  5.1

     negative rho (up, down):  0.175E-04 0.000E+00

     total cpu time spent up to now is       18.3 secs

     total energy              =     -22.75979411 Ry
     Harris-Foulkes estimate   =     -22.88426358 Ry
     estimated scf accuracy    <       0.20656573 Ry

     iteration #  2     ecut=    75.00 Ry     beta=0.70
     Davidson diagonalization with overlap
     ethr =  2.58E-03,  avg # of iterations =  3.2

     negative rho (up, down):  0.170E-04 0.000E+00

     total cpu time spent up to now is       27.4 secs

     total energy              =     -22.79091841 Ry
     Harris-Foulkes estimate   =     -22.79105409 Ry
     estimated scf accuracy    <       0.00252086 Ry

     iteration #  3     ecut=    75.00 Ry     beta=0.70
     Davidson diagonalization with overlap
     ethr =  3.15E-05,  avg # of iterations = 11.7

     negative rho (up, down):  0.186E-04 0.000E+00

     total cpu time spent up to now is       43.4 secs

     total energy              =     -22.79129419 Ry
     Harris-Foulkes estimate   =     -22.79126378 Ry
     estimated scf accuracy    <       0.00013609 Ry

     iteration #  4     ecut=    75.00 Ry     beta=0.70
     Davidson diagonalization with overlap
     ethr =  1.70E-06,  avg # of iterations =  5.1

     negative rho (up, down):  0.187E-04 0.000E+00

     total cpu time spent up to now is       53.5 secs

     total energy              =     -22.79129980 Ry
     Harris-Foulkes estimate   =     -22.79129895 Ry
     estimated scf accuracy    <       0.00000098 Ry

     iteration #  5     ecut=    75.00 Ry     beta=0.70
     Davidson diagonalization with overlap
     ethr =  1.23E-08,  avg # of iterations =  2.4

     negative rho (up, down):  0.187E-04 0.000E+00

     total cpu time spent up to now is       62.8 secs

     total energy              =     -22.79130014 Ry
     Harris-Foulkes estimate   =     -22.79130013 Ry
     estimated scf accuracy    <       0.00000003 Ry

     iteration #  6     ecut=    75.00 Ry     beta=0.70
     Davidson diagonalization with overlap
     ethr =  3.23E-10,  avg # of iterations =  2.0

     negative rho (up, down):  0.186E-04 0.000E+00

     total cpu time spent up to now is       71.3 secs

     End of self-consistent calculation

          k = 0.0000 0.0000 0.0000 ( 11445 PWs)   bands (ev):

   -22.4918 -10.6021  -6.0251  -6.0251   0.3035   1.0416   1.2090   1.5613

          k = 0.0000 0.0888 0.0000 ( 11523 PWs)   bands (ev):

   -22.3518 -10.4345  -6.5810  -6.3172   0.4940   1.2353   1.4049   1.7562

          k = 0.0000 0.1776 0.0000 ( 11553 PWs)   bands (ev):

   -21.9332  -9.9352  -8.0123  -7.0228   1.0655   1.8157   1.9924   2.3404

          k = 0.0000 0.2665 0.0000 ( 11537 PWs)   bands (ev):

   -21.2399  -9.8974  -9.1178  -7.8439   2.0167   2.7774   2.9716   3.3111

          k = 0.0000 0.3553 0.0000 ( 11489 PWs)   bands (ev):

   -20.2802 -11.9277  -8.5734  -8.0142   2.6844   3.3416   4.1553   4.3420

          k = 0.0000 0.4441 0.0000 ( 11451 PWs)   bands (ev):

   -19.0713 -13.9190  -9.1021  -6.7115   0.6051   4.6239   5.0902   5.8722

          k = 0.0000 0.5329 0.0000 ( 11432 PWs)   bands (ev):

   -17.6864 -15.7129  -9.3772  -5.5374  -0.9947   4.5180   7.1138   7.9545

          k = 0.0769 0.1332 0.0000 ( 11515 PWs)   bands (ev):

   -22.0725 -10.1009  -7.4902  -6.9015   0.8752   1.6224   1.7966   2.1458

          k = 0.0769 0.2221 0.0000 ( 11532 PWs)   bands (ev):

   -21.5165  -9.4419  -9.0184  -7.7975   1.6372   2.3948   2.5799   2.9241

          k = 0.0769 0.3109 0.0000 ( 11510 PWs)   bands (ev):

   -20.6900 -10.9049  -8.6456  -8.4780   2.7772   3.4700   3.7098   3.7550

          k = 0.0769 0.3997 0.0000 ( 11464 PWs)   bands (ev):

   -19.6049 -12.8845  -9.3066  -7.2593   1.5501   4.2849   5.0978   5.3167

          k = 0.0769 0.4885 0.0000 ( 11440 PWs)   bands (ev):

   -18.2915 -14.7800  -9.7211  -5.9436  -0.3443   5.1761   6.1899   6.9929

          k = 0.0769-0.5774 0.0000 ( 11436 PWs)   bands (ev):

   -17.1402 -16.1321  -9.8620  -5.1913  -1.3007   5.1142   8.3096   8.4712

          k = 0.1538 0.2665 0.0000 ( 11495 PWs)   bands (ev):

   -20.8273 -10.2659  -9.0053  -8.6342   2.5888   3.3568   3.5592   3.8958

          k = 0.1538 0.3553 0.0000 ( 11468 PWs)   bands (ev):

   -19.8749 -11.8706 -10.0179  -7.5426   2.2087   3.9153   4.6948   4.9300

          k = 0.1538 0.4441 0.0000 ( 11434 PWs)   bands (ev):

   -18.6786 -13.6755 -10.6506  -6.2456   0.3433   5.6034   6.3813   6.6908

          k = 0.1538-0.6218 0.0000 ( 11407 PWs)   bands (ev):

   -17.3161 -15.3854 -10.9574  -5.0423  -1.1742   6.7232   7.6518   8.2493

          k = 0.2308 0.3997 0.0000 ( 11434 PWs)   bands (ev):

   -18.8101 -12.9094 -11.3958  -6.3548   0.6540   5.4199   6.1638   6.4966

          k = 0.2308-0.6662 0.0000 ( 11395 PWs)   bands (ev):

   -17.5328 -14.3048 -12.1774  -5.0298  -0.9052   7.2608   7.6767   8.4534

          k = 0.2308-0.5774 0.0000 ( 11376 PWs)   bands (ev):

   -16.4240 -15.5083 -12.3956  -4.1734  -1.8438   8.1395   8.7367   9.2148

          k = 0.3077-0.6218 0.0000 ( 11408 PWs)   bands (ev):

   -16.2594 -15.0017 -13.3128  -3.7265  -2.1834   7.7695   9.1202  10.0981

     the Fermi energy is    -3.1365 ev

!    total energy              =     -22.79130014 Ry
     Harris-Foulkes estimate   =     -22.79130014 Ry
     estimated scf accuracy    <          4.6E-10 Ry

     The total energy is the sum of the following terms:

     one-electron contribution =    -353.76086642 Ry
     hartree contribution      =     177.88991563 Ry
     xc contribution           =      -7.02459078 Ry
     ewald contribution        =     160.10424143 Ry
     smearing contrib. (-TS)   =      -0.00000000 Ry

     convergence has been achieved in   6 iterations

     Writing output data file graphene.save

     init_run     :      5.05s CPU      5.30s WALL (       1 calls)
     electrons    :     62.71s CPU     65.96s WALL (       1 calls)

     Called by init_run:
     wfcinit      :      2.54s CPU      2.66s WALL (       1 calls)
     potinit      :      1.10s CPU      1.15s WALL (       1 calls)

     Called by electrons:
     c_bands      :     45.01s CPU     47.06s WALL (       6 calls)
     sum_band     :     11.31s CPU     12.03s WALL (       6 calls)
     v_of_rho     :      2.68s CPU      2.92s WALL (       7 calls)
     newd         :      3.15s CPU      3.32s WALL (       7 calls)
     mix_rho      :      0.45s CPU      0.47s WALL (       6 calls)

     Called by c_bands:
     init_us_2    :      0.70s CPU      0.80s WALL (     273 calls)
     cegterg      :     44.08s CPU     45.94s WALL (     126 calls)

     Called by *egterg:
     h_psi        :     41.02s CPU     42.80s WALL (     767 calls)
     s_psi        :      0.72s CPU      0.72s WALL (     767 calls)
     g_psi        :      0.21s CPU      0.22s WALL (     620 calls)
     cdiaghg      :      0.31s CPU      0.31s WALL (     746 calls)

     Called by h_psi:
     add_vuspsi   :      0.68s CPU      0.70s WALL (     767 calls)

     General routines
     calbec       :      1.18s CPU      1.21s WALL (     893 calls)
     fft          :      2.64s CPU      2.86s WALL (     107 calls)
     ffts         :      0.09s CPU      0.10s WALL (      13 calls)
     fftw         :     29.03s CPU     30.83s WALL (    7728 calls)
     interpolate  :      0.52s CPU      0.54s WALL (      13 calls)
     davcio       :      0.23s CPU      0.30s WALL (     399 calls)

     Parallel routines
     fft_scatter  :     19.01s CPU     20.74s WALL (    7848 calls)

     PWSCF        :  1m 8.09s CPU     1m11.63s WALL


   This run was terminated on:   2:47:59  26Jul2015            

=------------------------------------------------------------------------------=
   JOB DONE.
=------------------------------------------------------------------------------=
