
     Program PWSCF v.5.0.2 (svn rev. 9656) starts on 26Jul2015 at  3: 1:20 

     This program is part of the open-source Quantum ESPRESSO suite
     for quantum simulation of materials; please cite
         "P. Giannozzi et al., J. Phys.:Condens. Matter 21 395502 (2009);
          URL http://www.quantum-espresso.org", 
     in publications or presentations arising from this work. More details at
     http://www.quantum-espresso.org/quote.php

     Parallel version (MPI), running on     4 processors
     R & G space division:  proc/nbgrp/npool/nimage =       4

     Current dimensions of program PWSCF are:
     Max number of different atomic species (ntypx) = 10
     Max number of k-points (npk) =  40000
     Max angular momentum in pseudopotentials (lmaxx) =  3
     Waiting for input...
     Reading input from standard input
               file C.pbe-rrkjus.UPF: wavefunction(s)  2S 2P renormalized

     Subspace diagonalization in iterative solution of the eigenvalue problem:
     a serial algorithm will be used


     Parallelization info
     --------------------
     sticks:   dense  smooth     PW     G-vecs:    dense   smooth      PW
     Min         211     118     37                58589    25196    4357
     Max         212     119     38                58614    25235    4386
     Sum         847     475    151               234415   100883   17511



     bravais-lattice index     =            0
     lattice parameter (alat)  =       4.6500  a.u.
     unit-cell volume          =    1044.8904 (a.u.)^3
     number of atoms/cell      =            2
     number of atomic types    =            1
     number of electrons       =         8.00
     number of Kohn-Sham states=            8
     kinetic-energy cutoff     =      80.0000  Ry
     charge density cutoff     =     560.0000  Ry
     convergence threshold     =      1.0E-08
     mixing beta               =       0.7000
     number of iterations used =            8  plain     mixing
     Exchange-correlation      =  SLA  PW   PBE  PBE ( 1 4 3 4 0)
     EXX-fraction              =        0.00

     celldm(1)=   4.650000  celldm(2)=   0.000000  celldm(3)=   0.000000
     celldm(4)=   0.000000  celldm(5)=   0.000000  celldm(6)=   0.000000

     crystal axes: (cart. coord. in units of alat)
               a(1) = (   1.000000   0.000000   0.000000 )  
               a(2) = (   0.500000   0.866025   0.000000 )  
               a(3) = (   0.000000   0.000000  12.000000 )  

     reciprocal axes: (cart. coord. in units 2 pi/alat)
               b(1) = (  1.000000 -0.577350  0.000000 )  
               b(2) = (  0.000000  1.154701  0.000000 )  
               b(3) = (  0.000000  0.000000  0.083333 )  


     PseudoPot. # 1 for C  read from file:
     ./C.pbe-rrkjus.UPF
     MD5 check sum: 00fb224312de0c5b6853bd333518df6f
     Pseudo is Ultrasoft, Zval =  4.0
     Generated by new atomic code, or converted to UPF format
     Using radial grid of  627 points,  4 beta functions with: 
                l(1) =   0
                l(2) =   0
                l(3) =   1
                l(4) =   1
     Q(r) pseudized with 0 coefficients 


     atomic species   valence    mass     pseudopotential
        C              4.00    12.00000     C ( 1.00)

     24 Sym. Ops., with inversion, found (12 have fractional translation)



   Cartesian axes

     site n.     atom                  positions (alat units)
         1           C   tau(   1) = (   0.0000000   0.0000000   0.0000000  )
         2           C   tau(   2) = (   1.0000000   0.5773503   0.0000000  )

     number of k points=    27  gaussian smearing, width (Ry)=  0.0010
                       cart. coord. in units 2pi/alat
        k(    1) = (   0.0000000   0.0000000   0.0000000), wk =   0.0088889
        k(    2) = (   0.0000000   0.0769800   0.0000000), wk =   0.0533333
        k(    3) = (   0.0000000   0.1539601   0.0000000), wk =   0.0533333
        k(    4) = (   0.0000000   0.2309401   0.0000000), wk =   0.0533333
        k(    5) = (   0.0000000   0.3079201   0.0000000), wk =   0.0533333
        k(    6) = (   0.0000000   0.3849002   0.0000000), wk =   0.0533333
        k(    7) = (   0.0000000   0.4618802   0.0000000), wk =   0.0533333
        k(    8) = (   0.0000000   0.5388603   0.0000000), wk =   0.0533333
        k(    9) = (   0.0666667   0.1154701   0.0000000), wk =   0.0533333
        k(   10) = (   0.0666667   0.1924501   0.0000000), wk =   0.1066667
        k(   11) = (   0.0666667   0.2694301   0.0000000), wk =   0.1066667
        k(   12) = (   0.0666667   0.3464102   0.0000000), wk =   0.1066667
        k(   13) = (   0.0666667   0.4233902   0.0000000), wk =   0.1066667
        k(   14) = (   0.0666667   0.5003702   0.0000000), wk =   0.1066667
        k(   15) = (   0.0666667  -0.5773503   0.0000000), wk =   0.0533333
        k(   16) = (   0.1333333   0.2309401   0.0000000), wk =   0.0533333
        k(   17) = (   0.1333333   0.3079201   0.0000000), wk =   0.1066667
        k(   18) = (   0.1333333   0.3849002   0.0000000), wk =   0.1066667
        k(   19) = (   0.1333333   0.4618802   0.0000000), wk =   0.1066667
        k(   20) = (   0.1333333  -0.6158403   0.0000000), wk =   0.1066667
        k(   21) = (   0.2000000   0.3464102   0.0000000), wk =   0.0533333
        k(   22) = (   0.2000000   0.4233902   0.0000000), wk =   0.1066667
        k(   23) = (   0.2000000  -0.6543303   0.0000000), wk =   0.1066667
        k(   24) = (   0.2000000  -0.5773503   0.0000000), wk =   0.0533333
        k(   25) = (   0.2666667  -0.6928203   0.0000000), wk =   0.0533333
        k(   26) = (   0.2666667  -0.6158403   0.0000000), wk =   0.1066667
        k(   27) = (   0.3333333  -0.5773503   0.0000000), wk =   0.0177778

     Dense  grid:   234415 G-vectors     FFT dimensions: (  36,  36, 432)

     Smooth grid:   100883 G-vectors     FFT dimensions: (  27,  27, 320)

     Largest allocated arrays     est. size (Mb)     dimensions
        Kohn-Sham Wavefunctions         0.39 Mb     (   3230,    8)
        NL pseudopotentials             0.79 Mb     (   3230,   16)
        Each V/rho on FFT grid          2.14 Mb     ( 139968)
        Each G-vector array             0.45 Mb     (  58604)
        G-vector shells                 0.13 Mb     (  17383)
     Largest temporary arrays     est. size (Mb)     dimensions
        Auxiliary wavefunctions         1.58 Mb     (   3230,   32)
        Each subspace H/S matrix        0.02 Mb     (  32,  32)
        Each <psi_i|beta_j> matrix      0.00 Mb     (     16,    8)
        Arrays for rho mixing          17.09 Mb     ( 139968,   8)

     Initial potential from superposition of free atoms

     starting charge    7.99989, renormalised to    8.00000

     negative rho (up, down):  0.254E-04 0.000E+00
     Starting wfc are    8 randomized atomic wfcs

     total cpu time spent up to now is        5.3 secs

     per-process dynamical memory:    30.6 Mb

     Self-consistent Calculation

     iteration #  1     ecut=    80.00 Ry     beta=0.70
     Davidson diagonalization with overlap
     ethr =  1.00E-02,  avg # of iterations =  5.4

     negative rho (up, down):  0.176E-04 0.000E+00

     total cpu time spent up to now is       23.3 secs

     total energy              =     -22.75940756 Ry
     Harris-Foulkes estimate   =     -22.88389008 Ry
     estimated scf accuracy    <       0.20658998 Ry

     iteration #  2     ecut=    80.00 Ry     beta=0.70
     Davidson diagonalization with overlap
     ethr =  2.58E-03,  avg # of iterations =  4.0

     negative rho (up, down):  0.169E-04 0.000E+00

     total cpu time spent up to now is       37.2 secs

     total energy              =     -22.79054086 Ry
     Harris-Foulkes estimate   =     -22.79067794 Ry
     estimated scf accuracy    <       0.00251269 Ry

     iteration #  3     ecut=    80.00 Ry     beta=0.70
     Davidson diagonalization with overlap
     ethr =  3.14E-05,  avg # of iterations = 10.9

     negative rho (up, down):  0.186E-04 0.000E+00

     total cpu time spent up to now is       60.6 secs

     total energy              =     -22.79090239 Ry
     Harris-Foulkes estimate   =     -22.79087182 Ry
     estimated scf accuracy    <       0.00013734 Ry

     iteration #  4     ecut=    80.00 Ry     beta=0.70
     Davidson diagonalization with overlap
     ethr =  1.72E-06,  avg # of iterations =  4.6

     negative rho (up, down):  0.187E-04 0.000E+00

     total cpu time spent up to now is       75.0 secs

     total energy              =     -22.79090825 Ry
     Harris-Foulkes estimate   =     -22.79090739 Ry
     estimated scf accuracy    <       0.00000096 Ry

     iteration #  5     ecut=    80.00 Ry     beta=0.70
     Davidson diagonalization with overlap
     ethr =  1.19E-08,  avg # of iterations =  2.4

     negative rho (up, down):  0.187E-04 0.000E+00

     total cpu time spent up to now is       88.1 secs

     total energy              =     -22.79090860 Ry
     Harris-Foulkes estimate   =     -22.79090859 Ry
     estimated scf accuracy    <       0.00000003 Ry

     iteration #  6     ecut=    80.00 Ry     beta=0.70
     Davidson diagonalization with overlap
     ethr =  3.31E-10,  avg # of iterations =  2.0

     negative rho (up, down):  0.186E-04 0.000E+00

     total cpu time spent up to now is      100.5 secs

     End of self-consistent calculation

          k = 0.0000 0.0000 0.0000 ( 12735 PWs)   bands (ev):

   -22.4916 -10.6019  -6.0249  -6.0249   0.3036   1.0417   1.2090   1.5613

          k = 0.0000 0.0770 0.0000 ( 12763 PWs)   bands (ev):

   -22.3864 -10.4759  -6.4469  -6.2475   0.4467   1.1872   1.3561   1.7077

          k = 0.0000 0.1540 0.0000 ( 12739 PWs)   bands (ev):

   -22.0716 -10.1000  -7.5696  -6.8117   0.8760   1.6234   1.7974   2.1466

          k = 0.0000 0.2309 0.0000 ( 12685 PWs)   bands (ev):

   -21.5495  -9.4813  -9.1118  -7.5173   1.5910   2.3482   2.5329   2.8771

          k = 0.0000 0.3079 0.0000 ( 12603 PWs)   bands (ev):

   -20.8242 -10.8399  -8.6349  -8.2039   2.5894   3.3277   3.5625   3.8109

          k = 0.0000 0.3849 0.0000 ( 12626 PWs)   bands (ev):

   -19.9033 -12.6024  -8.7752  -7.5942   1.9768   3.8614   4.6832   4.8229

          k = 0.0000 0.4619 0.0000 ( 12586 PWs)   bands (ev):

   -18.8027 -14.3004  -9.1782  -6.4459   0.2231   4.6051   5.4558   6.2613

          k = 0.0000 0.5389 0.0000 ( 12552 PWs)   bands (ev):

   -17.5974 -15.8143  -9.3856  -5.4855  -1.0597   4.5141   7.2621   8.1046

          k = 0.0667 0.1155 0.0000 ( 12727 PWs)   bands (ev):

   -22.1764 -10.2249  -7.1678  -6.6930   0.7329   1.4781   1.6503   2.0003

          k = 0.0667 0.1925 0.0000 ( 12680 PWs)   bands (ev):

   -21.7580  -9.7274  -8.4111  -7.4187   1.3054   2.0589   2.2387   2.5852

          k = 0.0667 0.2694 0.0000 ( 12634 PWs)   bands (ev):

   -21.1343  -9.9879  -8.9936  -8.1747   2.1629   2.9248   3.1213   3.4597

          k = 0.0667 0.3464 0.0000 ( 12618 PWs)   bands (ev):

   -20.3111 -11.7026  -8.8347  -8.0457   2.8183   3.3018   4.1049   4.2980

          k = 0.0667 0.4234 0.0000 ( 12584 PWs)   bands (ev):

   -19.2991 -13.4189  -9.3367  -6.9348   1.0268   4.6986   5.2040   5.5363

          k = 0.0667 0.5004 0.0000 ( 12594 PWs)   bands (ev):

   -18.1277 -15.0362  -9.6483  -5.8139  -0.5441   5.0147   6.4287   7.2418

          k = 0.0667-0.5774 0.0000 ( 12588 PWs)   bands (ev):

   -17.1623 -16.1539  -9.7538  -5.2229  -1.2914   4.9663   8.2793   8.4387

          k = 0.1333 0.2309 0.0000 ( 12637 PWs)   bands (ev):

   -21.2380  -9.5061  -9.1140  -8.3797   2.0209   2.7831   2.9742   3.3157

          k = 0.1333 0.3079 0.0000 ( 12621 PWs)   bands (ev):

   -20.5163 -10.8964  -9.2840  -8.2748   3.0199   3.3666   3.8007   4.0040

          k = 0.1333 0.3849 0.0000 ( 12601 PWs)   bands (ev):

   -19.6012 -12.4846  -9.9563  -7.2412   1.6939   4.2977   5.0864   5.3277

          k = 0.1333 0.4619 0.0000 ( 12600 PWs)   bands (ev):

   -18.5101 -14.0954 -10.3999  -6.0928   0.0605   5.8320   6.3604   6.6357

          k = 0.1333-0.6158 0.0000 ( 12602 PWs)   bands (ev):

   -17.3203 -15.5627 -10.6215  -5.1103  -1.1828   6.2272   7.6629   8.3385

          k = 0.2000 0.3464 0.0000 ( 12637 PWs)   bands (ev):

   -19.7026 -11.9055 -10.4560  -7.3453   1.9675   4.1576   4.9306   5.1807

          k = 0.2000 0.4234 0.0000 ( 12659 PWs)   bands (ev):

   -18.7060 -13.1873 -11.2741  -6.2483   0.4870   5.5674   6.3126   6.6515

          k = 0.2000-0.6543 0.0000 ( 12601 PWs)   bands (ev):

   -17.5599 -14.6139 -11.6989  -5.1080  -0.9061   7.2225   7.7587   8.0036

          k = 0.2000-0.5774 0.0000 ( 12602 PWs)   bands (ev):

   -16.6240 -15.6593 -11.8312  -4.4568  -1.6463   7.9223   8.4065   8.9788

          k = 0.2667-0.6928 0.0000 ( 12617 PWs)   bands (ev):

   -17.6484 -13.9645 -12.4003  -5.1209  -0.7620   7.0897   7.5267   8.2687

          k = 0.2667-0.6158 0.0000 ( 12597 PWs)   bands (ev):

   -16.5083 -15.0125 -12.9406  -4.0372  -1.9005   7.8847   8.7820   9.6552

          k = 0.3333-0.5774 0.0000 ( 12642 PWs)   bands (ev):

   -15.5526 -15.5526 -13.5628  -2.9491  -2.9491   7.6897   9.9569   9.9569

     the Fermi energy is    -2.9491 ev

!    total energy              =     -22.79090860 Ry
     Harris-Foulkes estimate   =     -22.79090860 Ry
     estimated scf accuracy    <          8.0E-10 Ry

     The total energy is the sum of the following terms:

     one-electron contribution =    -353.76070593 Ry
     hartree contribution      =     177.89015604 Ry
     xc contribution           =      -7.02459012 Ry
     ewald contribution        =     160.10424143 Ry
     smearing contrib. (-TS)   =      -0.00001003 Ry

     convergence has been achieved in   6 iterations

     Writing output data file graphene.save

     init_run     :      5.15s CPU      5.27s WALL (       1 calls)
     electrons    :     89.85s CPU     95.20s WALL (       1 calls)

     Called by init_run:
     wfcinit      :      2.75s CPU      2.82s WALL (       1 calls)
     potinit      :      1.08s CPU      1.10s WALL (       1 calls)

     Called by electrons:
     c_bands      :     68.56s CPU     72.28s WALL (       6 calls)
     sum_band     :     15.20s CPU     16.10s WALL (       6 calls)
     v_of_rho     :      2.71s CPU      2.97s WALL (       7 calls)
     newd         :      2.92s CPU      3.27s WALL (       7 calls)
     mix_rho      :      0.41s CPU      0.43s WALL (       6 calls)

     Called by c_bands:
     init_us_2    :      0.95s CPU      1.18s WALL (     351 calls)
     cegterg      :     67.27s CPU     70.71s WALL (     162 calls)

     Called by *egterg:
     h_psi        :     62.18s CPU     65.39s WALL (     980 calls)
     s_psi        :      0.96s CPU      0.96s WALL (     980 calls)
     g_psi        :      0.34s CPU      0.34s WALL (     791 calls)
     cdiaghg      :      0.45s CPU      0.46s WALL (     953 calls)

     Called by h_psi:
     add_vuspsi   :      0.91s CPU      0.93s WALL (     980 calls)

     General routines
     calbec       :      1.47s CPU      1.57s WALL (    1142 calls)
     fft          :      2.52s CPU      2.79s WALL (     107 calls)
     ffts         :      0.11s CPU      0.12s WALL (      13 calls)
     fftw         :     51.22s CPU     54.56s WALL (    9850 calls)
     interpolate  :      0.48s CPU      0.52s WALL (      13 calls)
     davcio       :      0.28s CPU      0.37s WALL (     513 calls)

     Parallel routines
     fft_scatter  :     24.66s CPU     27.73s WALL (    9970 calls)

     PWSCF        :  1m35.35s CPU     1m40.87s WALL


   This run was terminated on:   3: 3: 1  26Jul2015            

=------------------------------------------------------------------------------=
   JOB DONE.
=------------------------------------------------------------------------------=
