
     Program PWSCF v.5.0.2 (svn rev. 9656) starts on 26Jul2015 at  2: 9: 2 

     This program is part of the open-source Quantum ESPRESSO suite
     for quantum simulation of materials; please cite
         "P. Giannozzi et al., J. Phys.:Condens. Matter 21 395502 (2009);
          URL http://www.quantum-espresso.org", 
     in publications or presentations arising from this work. More details at
     http://www.quantum-espresso.org/quote.php

     Parallel version (MPI), running on     4 processors
     R & G space division:  proc/nbgrp/npool/nimage =       4

     Current dimensions of program PWSCF are:
     Max number of different atomic species (ntypx) = 10
     Max number of k-points (npk) =  40000
     Max angular momentum in pseudopotentials (lmaxx) =  3
     Waiting for input...
     Reading input from standard input
               file C.pbe-rrkjus.UPF: wavefunction(s)  2S 2P renormalized

     Subspace diagonalization in iterative solution of the eigenvalue problem:
     a serial algorithm will be used


     Parallelization info
     --------------------
     sticks:   dense  smooth     PW     G-vecs:    dense   smooth      PW
     Min         211      78     27                58589    14252    2633
     Max         212      79     28                58614    14323    2660
     Sum         847     313    109               234415    57119   10565



     bravais-lattice index     =            0
     lattice parameter (alat)  =       4.6500  a.u.
     unit-cell volume          =    1044.8904 (a.u.)^3
     number of atoms/cell      =            2
     number of atomic types    =            1
     number of electrons       =         8.00
     number of Kohn-Sham states=            8
     kinetic-energy cutoff     =      55.0000  Ry
     charge density cutoff     =     560.0000  Ry
     convergence threshold     =      1.0E-08
     mixing beta               =       0.7000
     number of iterations used =            8  plain     mixing
     Exchange-correlation      =  SLA  PW   PBE  PBE ( 1 4 3 4 0)
     EXX-fraction              =        0.00

     celldm(1)=   4.650000  celldm(2)=   0.000000  celldm(3)=   0.000000
     celldm(4)=   0.000000  celldm(5)=   0.000000  celldm(6)=   0.000000

     crystal axes: (cart. coord. in units of alat)
               a(1) = (   1.000000   0.000000   0.000000 )  
               a(2) = (   0.500000   0.866025   0.000000 )  
               a(3) = (   0.000000   0.000000  12.000000 )  

     reciprocal axes: (cart. coord. in units 2 pi/alat)
               b(1) = (  1.000000 -0.577350  0.000000 )  
               b(2) = (  0.000000  1.154701  0.000000 )  
               b(3) = (  0.000000  0.000000  0.083333 )  


     PseudoPot. # 1 for C  read from file:
     ./C.pbe-rrkjus.UPF
     MD5 check sum: 00fb224312de0c5b6853bd333518df6f
     Pseudo is Ultrasoft, Zval =  4.0
     Generated by new atomic code, or converted to UPF format
     Using radial grid of  627 points,  4 beta functions with: 
                l(1) =   0
                l(2) =   0
                l(3) =   1
                l(4) =   1
     Q(r) pseudized with 0 coefficients 


     atomic species   valence    mass     pseudopotential
        C              4.00    12.00000     C ( 1.00)

     24 Sym. Ops., with inversion, found (12 have fractional translation)



   Cartesian axes

     site n.     atom                  positions (alat units)
         1           C   tau(   1) = (   0.0000000   0.0000000   0.0000000  )
         2           C   tau(   2) = (   1.0000000   0.5773503   0.0000000  )

     number of k points=    16  gaussian smearing, width (Ry)=  0.0010
                       cart. coord. in units 2pi/alat
        k(    1) = (   0.0000000   0.0000000   0.0000000), wk =   0.0165289
        k(    2) = (   0.0000000   0.1049728   0.0000000), wk =   0.0991736
        k(    3) = (   0.0000000   0.2099456   0.0000000), wk =   0.0991736
        k(    4) = (   0.0000000   0.3149183   0.0000000), wk =   0.0991736
        k(    5) = (   0.0000000   0.4198911   0.0000000), wk =   0.0991736
        k(    6) = (   0.0000000   0.5248639   0.0000000), wk =   0.0991736
        k(    7) = (   0.0909091   0.1574592   0.0000000), wk =   0.0991736
        k(    8) = (   0.0909091   0.2624319   0.0000000), wk =   0.1983471
        k(    9) = (   0.0909091   0.3674047   0.0000000), wk =   0.1983471
        k(   10) = (   0.0909091   0.4723775   0.0000000), wk =   0.1983471
        k(   11) = (   0.0909091  -0.5773503   0.0000000), wk =   0.0991736
        k(   12) = (   0.1818182   0.3149183   0.0000000), wk =   0.0991736
        k(   13) = (   0.1818182   0.4198911   0.0000000), wk =   0.1983471
        k(   14) = (   0.1818182  -0.6298367   0.0000000), wk =   0.1983471
        k(   15) = (   0.2727273  -0.6823230   0.0000000), wk =   0.0991736
        k(   16) = (   0.2727273  -0.5773503   0.0000000), wk =   0.0991736

     Dense  grid:   234415 G-vectors     FFT dimensions: (  36,  36, 432)

     Smooth grid:    57119 G-vectors     FFT dimensions: (  24,  24, 270)

     Largest allocated arrays     est. size (Mb)     dimensions
        Kohn-Sham Wavefunctions         0.23 Mb     (   1856,    8)
        NL pseudopotentials             0.45 Mb     (   1856,   16)
        Each V/rho on FFT grid          2.14 Mb     ( 139968)
        Each G-vector array             0.45 Mb     (  58604)
        G-vector shells                 0.13 Mb     (  17438)
     Largest temporary arrays     est. size (Mb)     dimensions
        Auxiliary wavefunctions         0.91 Mb     (   1856,   32)
        Each subspace H/S matrix        0.02 Mb     (  32,  32)
        Each <psi_i|beta_j> matrix      0.00 Mb     (     16,    8)
        Arrays for rho mixing          17.09 Mb     ( 139968,   8)

     Initial potential from superposition of free atoms

     starting charge    7.99989, renormalised to    8.00000

     negative rho (up, down):  0.254E-04 0.000E+00
     Starting wfc are    8 randomized atomic wfcs

     total cpu time spent up to now is        3.0 secs

     per-process dynamical memory:    36.4 Mb

     Self-consistent Calculation

     iteration #  1     ecut=    55.00 Ry     beta=0.70
     Davidson diagonalization with overlap
     ethr =  1.00E-02,  avg # of iterations =  4.3

     negative rho (up, down):  0.178E-04 0.000E+00

     total cpu time spent up to now is        7.5 secs

     total energy              =     -22.75964481 Ry
     Harris-Foulkes estimate   =     -22.88407034 Ry
     estimated scf accuracy    <       0.20651609 Ry

     iteration #  2     ecut=    55.00 Ry     beta=0.70
     Davidson diagonalization with overlap
     ethr =  2.58E-03,  avg # of iterations =  5.6

     negative rho (up, down):  0.170E-04 0.000E+00

     total cpu time spent up to now is       11.4 secs

     total energy              =     -22.79075632 Ry
     Harris-Foulkes estimate   =     -22.79089017 Ry
     estimated scf accuracy    <       0.00249741 Ry

     iteration #  3     ecut=    55.00 Ry     beta=0.70
     Davidson diagonalization with overlap
     ethr =  3.12E-05,  avg # of iterations = 10.4

     negative rho (up, down):  0.187E-04 0.000E+00

     total cpu time spent up to now is       17.0 secs

     total energy              =     -22.79110124 Ry
     Harris-Foulkes estimate   =     -22.79107143 Ry
     estimated scf accuracy    <       0.00013912 Ry

     iteration #  4     ecut=    55.00 Ry     beta=0.70
     Davidson diagonalization with overlap
     ethr =  1.74E-06,  avg # of iterations =  4.2

     negative rho (up, down):  0.187E-04 0.000E+00

     total cpu time spent up to now is       20.6 secs

     total energy              =     -22.79110656 Ry
     Harris-Foulkes estimate   =     -22.79110579 Ry
     estimated scf accuracy    <       0.00000088 Ry

     iteration #  5     ecut=    55.00 Ry     beta=0.70
     Davidson diagonalization with overlap
     ethr =  1.10E-08,  avg # of iterations =  2.6

     negative rho (up, down):  0.187E-04 0.000E+00

     total cpu time spent up to now is       24.1 secs

     total energy              =     -22.79110688 Ry
     Harris-Foulkes estimate   =     -22.79110687 Ry
     estimated scf accuracy    <       0.00000002 Ry

     iteration #  6     ecut=    55.00 Ry     beta=0.70
     Davidson diagonalization with overlap
     ethr =  3.01E-10,  avg # of iterations =  2.0

     negative rho (up, down):  0.186E-04 0.000E+00

     total cpu time spent up to now is       27.3 secs

     End of self-consistent calculation

          k = 0.0000 0.0000 0.0000 (  7331 PWs)   bands (ev):

   -22.4913 -10.6016  -6.0244  -6.0244   0.3036   1.0417   1.2090   1.5613

          k = 0.0000 0.1050 0.0000 (  7317 PWs)   bands (ev):

   -22.2959 -10.3675  -6.7880  -6.4230   0.5697   1.3122   1.4825   1.8335

          k = 0.0000 0.2099 0.0000 (  7257 PWs)   bands (ev):

   -21.7120  -9.6731  -8.6641  -7.3208   1.3678   2.1221   2.3032   2.6491

          k = 0.0000 0.3149 0.0000 (  7208 PWs)   bands (ev):

   -20.7482 -11.0001  -8.5473  -8.2612   2.6941   3.3962   3.6707   3.7378

          k = 0.0000 0.4199 0.0000 (  7188 PWs)   bands (ev):

   -19.4234 -13.3869  -8.9809  -7.0758   1.1533   4.4846   4.7877   5.3655

          k = 0.0000 0.5249 0.0000 (  7116 PWs)   bands (ev):

   -17.8106 -15.5670  -9.3627  -5.6159  -0.8933   4.5253   6.9141   7.7519

          k = 0.0909 0.1575 0.0000 (  7281 PWs)   bands (ev):

   -21.9062  -9.9031  -7.9610  -7.2203   1.1021   1.8526   2.0296   2.3775

          k = 0.0909 0.2624 0.0000 (  7220 PWs)   bands (ev):

   -21.1324  -9.8739  -8.9908  -8.3364   2.1658   2.9285   3.1238   3.4631

          k = 0.0909 0.3674 0.0000 (  7194 PWs)   bands (ev):

   -19.9876 -12.1526  -9.2505  -7.6787   2.2616   3.7533   4.5517   4.7647

          k = 0.0909 0.4724 0.0000 (  7149 PWs)   bands (ev):

   -18.5049 -14.4198  -9.8303  -6.1257  -0.0536   5.4184   5.8936   6.6722

          k = 0.0909-0.5774 0.0000 (  7140 PWs)   bands (ev):

   -17.1041 -16.0966 -10.0282  -5.1398  -1.3155   5.3453   8.3580   8.5234

          k = 0.1818 0.3149 0.0000 (  7215 PWs)   bands (ev):

   -20.1775 -11.2752  -9.8838  -7.8845   2.7727   3.4922   4.2657   4.4914

          k = 0.1818 0.4199 0.0000 (  7206 PWs)   bands (ev):

   -18.8701 -13.1335 -10.9650  -6.4307   0.6829   5.3330   6.0954   6.4058

          k = 0.1818-0.6298 0.0000 (  7163 PWs)   bands (ev):

   -17.2910 -15.1280 -11.4388  -4.9347  -1.1778   7.4272   7.6974   8.1255

          k = 0.2727-0.6823 0.0000 (  7194 PWs)   bands (ev):

   -17.4428 -14.1291 -12.5549  -4.9096  -0.9856   7.3886   7.6698   8.5929

          k = 0.2727-0.5774 0.0000 (  7168 PWs)   bands (ev):

   -16.1047 -15.3484 -13.0898  -3.7231  -2.2117   7.8500   9.5496   9.6019

     the Fermi energy is    -2.4262 ev

!    total energy              =     -22.79110688 Ry
     Harris-Foulkes estimate   =     -22.79110688 Ry
     estimated scf accuracy    <          5.2E-10 Ry

     The total energy is the sum of the following terms:

     one-electron contribution =    -353.76085473 Ry
     hartree contribution      =     177.89022883 Ry
     xc contribution           =      -7.02472241 Ry
     ewald contribution        =     160.10424143 Ry
     smearing contrib. (-TS)   =      -0.00000000 Ry

     convergence has been achieved in   6 iterations

     Writing output data file graphene.save

     init_run     :      2.81s CPU      2.93s WALL (       1 calls)
     electrons    :     23.36s CPU     24.35s WALL (       1 calls)

     Called by init_run:
     wfcinit      :      0.83s CPU      0.87s WALL (       1 calls)
     potinit      :      0.89s CPU      0.91s WALL (       1 calls)

     Called by electrons:
     c_bands      :     15.26s CPU     15.86s WALL (       6 calls)
     sum_band     :      4.58s CPU      4.78s WALL (       6 calls)
     v_of_rho     :      1.73s CPU      1.81s WALL (       7 calls)
     newd         :      1.64s CPU      1.70s WALL (       7 calls)
     mix_rho      :      0.22s CPU      0.23s WALL (       6 calls)

     Called by c_bands:
     init_us_2    :      0.26s CPU      0.27s WALL (     208 calls)
     cegterg      :     14.92s CPU     15.47s WALL (      96 calls)

     Called by *egterg:
     h_psi        :     14.00s CPU     14.50s WALL (     577 calls)
     s_psi        :      0.19s CPU      0.19s WALL (     577 calls)
     g_psi        :      0.09s CPU      0.10s WALL (     465 calls)
     cdiaghg      :      0.21s CPU      0.22s WALL (     561 calls)

     Called by h_psi:
     add_vuspsi   :      0.21s CPU      0.21s WALL (     577 calls)

     General routines
     calbec       :      0.39s CPU      0.39s WALL (     673 calls)
     fft          :      1.57s CPU      1.70s WALL (     107 calls)
     ffts         :      0.05s CPU      0.05s WALL (      13 calls)
     fftw         :     10.61s CPU     11.06s WALL (    5818 calls)
     interpolate  :      0.28s CPU      0.29s WALL (      13 calls)
     davcio       :      0.07s CPU      0.08s WALL (     304 calls)

     Parallel routines
     fft_scatter  :      5.17s CPU      5.59s WALL (    5938 calls)

     PWSCF        :    26.42s CPU        27.54s WALL


   This run was terminated on:   2: 9:30  26Jul2015            

=------------------------------------------------------------------------------=
   JOB DONE.
=------------------------------------------------------------------------------=
