
     Program PWSCF v.5.0.2 (svn rev. 9656) starts on 12Jul2015 at  2:16:53 

     This program is part of the open-source Quantum ESPRESSO suite
     for quantum simulation of materials; please cite
         "P. Giannozzi et al., J. Phys.:Condens. Matter 21 395502 (2009);
          URL http://www.quantum-espresso.org", 
     in publications or presentations arising from this work. More details at
     http://www.quantum-espresso.org/quote.php

     Parallel version (MPI), running on     4 processors
     R & G space division:  proc/nbgrp/npool/nimage =       4

     Current dimensions of program PWSCF are:
     Max number of different atomic species (ntypx) = 10
     Max number of k-points (npk) =  40000
     Max angular momentum in pseudopotentials (lmaxx) =  3
     Waiting for input...
     Reading input from standard input
               file Al.pbe-n-kjpaw_psl.0.1.UPF: wavefunction(s)  3S renormalized

     Subspace diagonalization in iterative solution of the eigenvalue problem:
     a serial algorithm will be used


     Parallelization info
     --------------------
     sticks:   dense  smooth     PW     G-vecs:    dense   smooth      PW
     Min         148     148     49                 2429     2429     439
     Max         149     149     50                 2431     2431     440
     Sum         595     595    199                 9721     9721    1759



     bravais-lattice index     =            2
     lattice parameter (alat)  =       7.6300  a.u.
     unit-cell volume          =     111.0487 (a.u.)^3
     number of atoms/cell      =            1
     number of atomic types    =            1
     number of electrons       =         3.00
     number of Kohn-Sham states=            6
     kinetic-energy cutoff     =      75.0000  Ry
     charge density cutoff     =     300.0000  Ry
     convergence threshold     =      1.0E-07
     mixing beta               =       0.7000
     number of iterations used =            8  plain     mixing
     Exchange-correlation      =  SLA  PW   PBX  PBC ( 1 4 3 4 0)
     EXX-fraction              =        0.00

     celldm(1)=   7.630000  celldm(2)=   0.000000  celldm(3)=   0.000000
     celldm(4)=   0.000000  celldm(5)=   0.000000  celldm(6)=   0.000000

     crystal axes: (cart. coord. in units of alat)
               a(1) = (  -0.500000   0.000000   0.500000 )  
               a(2) = (   0.000000   0.500000   0.500000 )  
               a(3) = (  -0.500000   0.500000   0.000000 )  

     reciprocal axes: (cart. coord. in units 2 pi/alat)
               b(1) = ( -1.000000 -1.000000  1.000000 )  
               b(2) = (  1.000000  1.000000  1.000000 )  
               b(3) = ( -1.000000  1.000000 -1.000000 )  


     PseudoPot. # 1 for Al read from file:
     ./Al.pbe-n-kjpaw_psl.0.1.UPF
     MD5 check sum: 023d9faf819c76fc4df1f064efe7b7b2
     Pseudo is Projector augmented-wave + core cor, Zval =  3.0
     Generated using "atomic" code by A. Dal Corso  v.5.0.2 svn rev. 9415
     Shape of augmentation charge: PSQ
     Using radial grid of 1135 points,  4 beta functions with: 
                l(1) =   0
                l(2) =   0
                l(3) =   1
                l(4) =   1
     Q(r) pseudized with 0 coefficients 


     atomic species   valence    mass     pseudopotential
        Al             3.00    26.98154     Al( 1.00)

     48 Sym. Ops., with inversion, found



   Cartesian axes

     site n.     atom                  positions (alat units)
         1           Al  tau(   1) = (   0.0000000   0.0000000   0.0000000  )

     number of k points=    29  gaussian smearing, width (Ry)=  0.0030
                       cart. coord. in units 2pi/alat
        k(    1) = (   0.0000000   0.0000000   0.0000000), wk =   0.0039062
        k(    2) = (  -0.1250000   0.1250000  -0.1250000), wk =   0.0312500
        k(    3) = (  -0.2500000   0.2500000  -0.2500000), wk =   0.0312500
        k(    4) = (  -0.3750000   0.3750000  -0.3750000), wk =   0.0312500
        k(    5) = (   0.5000000  -0.5000000   0.5000000), wk =   0.0156250
        k(    6) = (   0.0000000   0.2500000   0.0000000), wk =   0.0234375
        k(    7) = (  -0.1250000   0.3750000  -0.1250000), wk =   0.0937500
        k(    8) = (  -0.2500000   0.5000000  -0.2500000), wk =   0.0937500
        k(    9) = (   0.6250000  -0.3750000   0.6250000), wk =   0.0937500
        k(   10) = (   0.5000000  -0.2500000   0.5000000), wk =   0.0937500
        k(   11) = (   0.3750000  -0.1250000   0.3750000), wk =   0.0937500
        k(   12) = (   0.2500000   0.0000000   0.2500000), wk =   0.0468750
        k(   13) = (   0.0000000   0.5000000   0.0000000), wk =   0.0234375
        k(   14) = (  -0.1250000   0.6250000  -0.1250000), wk =   0.0937500
        k(   15) = (   0.7500000  -0.2500000   0.7500000), wk =   0.0937500
        k(   16) = (   0.6250000  -0.1250000   0.6250000), wk =   0.0937500
        k(   17) = (   0.5000000   0.0000000   0.5000000), wk =   0.0468750
        k(   18) = (   0.0000000   0.7500000   0.0000000), wk =   0.0234375
        k(   19) = (   0.8750000  -0.1250000   0.8750000), wk =   0.0937500
        k(   20) = (   0.7500000   0.0000000   0.7500000), wk =   0.0468750
        k(   21) = (   0.0000000  -1.0000000   0.0000000), wk =   0.0117188
        k(   22) = (  -0.2500000   0.5000000   0.0000000), wk =   0.0937500
        k(   23) = (   0.6250000  -0.3750000   0.8750000), wk =   0.1875000
        k(   24) = (   0.5000000  -0.2500000   0.7500000), wk =   0.0937500
        k(   25) = (   0.7500000  -0.2500000   1.0000000), wk =   0.0937500
        k(   26) = (   0.6250000  -0.1250000   0.8750000), wk =   0.1875000
        k(   27) = (   0.5000000   0.0000000   0.7500000), wk =   0.0937500
        k(   28) = (  -0.2500000  -1.0000000   0.0000000), wk =   0.0468750
        k(   29) = (  -0.5000000  -1.0000000   0.0000000), wk =   0.0234375

     Dense  grid:     9721 G-vectors     FFT dimensions: (  30,  30,  30)

     Largest allocated arrays     est. size (Mb)     dimensions
        Kohn-Sham Wavefunctions         0.03 Mb     (    312,    6)
        NL pseudopotentials             0.04 Mb     (    312,    8)
        Each V/rho on FFT grid          0.11 Mb     (   7200)
        Each G-vector array             0.02 Mb     (   2429)
        G-vector shells                 0.00 Mb     (    149)
     Largest temporary arrays     est. size (Mb)     dimensions
        Auxiliary wavefunctions         0.11 Mb     (    312,   24)
        Each subspace H/S matrix        0.01 Mb     (  24,  24)
        Each <psi_i|beta_j> matrix      0.00 Mb     (      8,    6)
        Arrays for rho mixing           0.88 Mb     (   7200,   8)

     Check: negative/imaginary core charge=   -0.000002    0.000000

     Initial potential from superposition of free atoms

     starting charge    2.99771, renormalised to    3.00000
     Starting wfc are    4 randomized atomic wfcs
     Checking if some PAW data can be deallocated... 

     total cpu time spent up to now is        1.4 secs

     per-process dynamical memory:     9.4 Mb

     Self-consistent Calculation

     iteration #  1     ecut=    75.00 Ry     beta=0.70
     Davidson diagonalization with overlap
     ethr =  1.00E-02,  avg # of iterations =  5.3

     Threshold (ethr) on eigenvalues was too large:
     Diagonalizing with lowered threshold

     Davidson diagonalization with overlap
     ethr =  1.98E-04,  avg # of iterations =  2.3

     total cpu time spent up to now is        4.0 secs

     total energy              =     -39.50257236 Ry
     Harris-Foulkes estimate   =     -39.50392988 Ry
     estimated scf accuracy    <       0.00559795 Ry

     iteration #  2     ecut=    75.00 Ry     beta=0.70
     Davidson diagonalization with overlap
     ethr =  1.87E-04,  avg # of iterations =  1.0

     total cpu time spent up to now is        4.9 secs

     total energy              =     -39.50253860 Ry
     Harris-Foulkes estimate   =     -39.50264084 Ry
     estimated scf accuracy    <       0.00041507 Ry

     iteration #  3     ecut=    75.00 Ry     beta=0.70
     Davidson diagonalization with overlap
     ethr =  1.38E-05,  avg # of iterations =  1.3

     total cpu time spent up to now is        5.9 secs

     total energy              =     -39.50255893 Ry
     Harris-Foulkes estimate   =     -39.50255951 Ry
     estimated scf accuracy    <       0.00000149 Ry

     iteration #  4     ecut=    75.00 Ry     beta=0.70
     Davidson diagonalization with overlap
     ethr =  4.96E-08,  avg # of iterations =  3.2

     total cpu time spent up to now is        7.2 secs

     End of self-consistent calculation

          k = 0.0000 0.0000 0.0000 (  1243 PWs)   bands (ev):

    -3.2231  20.5723  20.5723  22.0509  22.0509  22.0509

          k =-0.1250 0.1250-0.1250 (  1230 PWs)   bands (ev):

    -2.7980  16.2619  19.6236  19.6236  22.6647  23.5966

          k =-0.2500 0.2500-0.2500 (  1227 PWs)   bands (ev):

    -1.5302  11.3797  18.8561  18.8561  22.3061  22.7063

          k =-0.3750 0.3750-0.3750 (  1215 PWs)   bands (ev):

     0.5585   7.0663  18.7647  18.7647  20.7143  20.7143

          k = 0.5000-0.5000 0.5000 (  1194 PWs)   bands (ev):

     3.3263   3.5517  19.3564  19.3564  19.4105  19.4105

          k = 0.0000 0.2500 0.0000 (  1235 PWs)   bands (ev):

    -2.6566  17.8611  17.8611  18.1022  20.9016  22.5883

          k =-0.1250 0.3750-0.1250 (  1227 PWs)   bands (ev):

    -1.6705  13.2441  16.7945  18.3106  19.5564  22.0955

          k =-0.2500 0.5000-0.2500 (  1230 PWs)   bands (ev):

     0.1429   8.7697  16.4458  17.1668  18.1576  24.1946

          k = 0.6250-0.3750 0.6250 (  1211 PWs)   bands (ev):

     2.7498   4.9299  15.5397  16.8193  18.5943  22.6761

          k = 0.5000-0.2500 0.5000 (  1220 PWs)   bands (ev):

     1.7966   6.1272  14.6574  17.9162  19.7799  21.8300

          k = 0.3750-0.1250 0.3750 (  1224 PWs)   bands (ev):

    -0.5518  10.1740  14.5589  19.7188  21.6700  21.6739

          k = 0.2500 0.0000 0.2500 (  1229 PWs)   bands (ev):

    -2.0923  14.3907  15.6439  21.6731  21.9970  23.3160

          k = 0.0000 0.5000 0.0000 (  1243 PWs)   bands (ev):

    -0.9705  15.4213  15.4657  15.4657  16.2045  18.9639

          k =-0.1250 0.6250-0.1250 (  1227 PWs)   bands (ev):

     0.5568  11.1620  13.5277  14.8665  16.3343  20.3744

          k = 0.7500-0.2500 0.7500 (  1217 PWs)   bands (ev):

     2.8804   7.1774  11.5984  14.9935  16.6802  24.0500

          k = 0.6250-0.1250 0.6250 (  1211 PWs)   bands (ev):

     3.8311   5.9538  10.4737  15.8472  17.6740  25.6049

          k = 0.5000 0.0000 0.5000 (  1211 PWs)   bands (ev):

     1.2474   9.1735  10.6948  17.4281  19.3945  25.5860

          k = 0.0000 0.7500 0.0000 (  1230 PWs)   bands (ev):

     1.7896  10.5257  13.7572  14.0205  14.0205  17.5301

          k = 0.8750-0.1250 0.8750 (  1217 PWs)   bands (ev):

     3.7963   8.3078  10.1503  13.9020  15.2652  19.4348

          k = 0.7500 0.0000 0.7500 (  1214 PWs)   bands (ev):

     6.0424   6.5683   7.5419  14.5100  16.1526  23.6342

          k = 0.0000-1.0000 0.0000 (  1234 PWs)   bands (ev):

     5.0018   6.3333  13.1981  13.5390  13.5390  17.0180

          k =-0.2500 0.5000 0.0000 (  1222 PWs)   bands (ev):

    -0.4128  11.7878  13.2038  16.7299  20.0907  21.8755

          k = 0.6250-0.3750 0.8750 (  1221 PWs)   bands (ev):

     1.6583   8.0695  12.5215  14.5904  20.7215  22.8151

          k = 0.5000-0.2500 0.7500 (  1208 PWs)   bands (ev):

     4.3758   4.6455  12.9104  13.4014  21.2486  21.6820

          k = 0.7500-0.2500 1.0000 (  1210 PWs)   bands (ev):

     2.3362  10.2199  10.9319  11.8481  18.5943  20.6235

          k = 0.6250-0.1250 0.8750 (  1210 PWs)   bands (ev):

     4.8650   7.0027   9.3954  11.5693  19.7860  23.9350

          k = 0.5000 0.0000 0.7500 (  1207 PWs)   bands (ev):

     3.9624   7.6066   9.0908  12.6753  21.0056  24.2514

          k =-0.2500-1.0000 0.0000 (  1218 PWs)   bands (ev):

     5.5218   6.8752   9.6968  11.2254  18.0842  20.1677

          k =-0.5000-1.0000 0.0000 (  1216 PWs)   bands (ev):

     7.0849   7.0849   8.0987   9.0548  23.7764  23.7764

     the Fermi energy is     8.0388 ev

!    total energy              =     -39.50256007 Ry
     Harris-Foulkes estimate   =     -39.50256010 Ry
     estimated scf accuracy    <       0.00000006 Ry

     total all-electron energy =      -485.645342 Ry

     The total energy is the sum of the following terms:

     one-electron contribution =       3.16911528 Ry
     hartree contribution      =       0.00607685 Ry
     xc contribution           =      -3.03193286 Ry
     ewald contribution        =      -5.40809419 Ry
     one-center paw contrib.   =     -34.23763284 Ry
     smearing contrib. (-TS)   =      -0.00009231 Ry

     convergence has been achieved in   4 iterations

     Writing output data file Al.save

     init_run     :      0.55s CPU      0.83s WALL (       1 calls)
     electrons    :      3.76s CPU      5.84s WALL (       1 calls)

     Called by init_run:
     wfcinit      :      0.19s CPU      0.30s WALL (       1 calls)
     potinit      :      0.07s CPU      0.11s WALL (       1 calls)

     Called by electrons:
     c_bands      :      2.90s CPU      4.53s WALL (       5 calls)
     sum_band     :      0.54s CPU      0.85s WALL (       5 calls)
     v_of_rho     :      0.08s CPU      0.09s WALL (       5 calls)
     newd         :      0.02s CPU      0.04s WALL (       5 calls)
     mix_rho      :      0.03s CPU      0.03s WALL (       5 calls)

     Called by c_bands:
     init_us_2    :      0.07s CPU      0.08s WALL (     319 calls)
     cegterg      :      2.84s CPU      4.45s WALL (     145 calls)

     Called by *egterg:
     h_psi        :      2.67s CPU      4.19s WALL (     557 calls)
     s_psi        :      0.02s CPU      0.02s WALL (     557 calls)
     g_psi        :      0.01s CPU      0.02s WALL (     383 calls)
     cdiaghg      :      0.15s CPU      0.20s WALL (     499 calls)

     Called by h_psi:
     add_vuspsi   :      0.02s CPU      0.02s WALL (     557 calls)

     General routines
     calbec       :      0.06s CPU      0.13s WALL (     702 calls)
     fft          :      0.05s CPU      0.09s WALL (      67 calls)
     fftw         :      2.92s CPU      4.54s WALL (    5834 calls)
     davcio       :      0.01s CPU      0.02s WALL (     464 calls)

     Parallel routines
     fft_scatter  :      0.70s CPU      2.07s WALL (    5901 calls)

     PAW routines
     PAW_pot      :      0.25s CPU      0.37s WALL (       5 calls)
     PAW_ddot     :      0.02s CPU      0.02s WALL (      12 calls)
     PAW_symme    :      0.00s CPU      0.00s WALL (      10 calls)

     PWSCF        :     4.91s CPU         7.43s WALL


   This run was terminated on:   2:17: 0  12Jul2015            

=------------------------------------------------------------------------------=
   JOB DONE.
=------------------------------------------------------------------------------=
