
     Program PWSCF v.5.0.2 (svn rev. 9656) starts on 26Jul2015 at  6:34: 2 

     This program is part of the open-source Quantum ESPRESSO suite
     for quantum simulation of materials; please cite
         "P. Giannozzi et al., J. Phys.:Condens. Matter 21 395502 (2009);
          URL http://www.quantum-espresso.org", 
     in publications or presentations arising from this work. More details at
     http://www.quantum-espresso.org/quote.php

     Parallel version (MPI), running on     4 processors
     R & G space division:  proc/nbgrp/npool/nimage =       4

     Current dimensions of program PWSCF are:
     Max number of different atomic species (ntypx) = 10
     Max number of k-points (npk) =  40000
     Max angular momentum in pseudopotentials (lmaxx) =  3
     Waiting for input...
     Reading input from standard input
               file C.pbe-rrkjus.UPF: wavefunction(s)  2S 2P renormalized

     Subspace diagonalization in iterative solution of the eigenvalue problem:
     a serial algorithm will be used


     Parallelization info
     --------------------
     sticks:   dense  smooth     PW     G-vecs:    dense   smooth      PW
     Min         222     105     30                64728    20705    3482
     Max         223     106     31                64771    20732    3541
     Sum         889     421    121               258975    82857   14001



     bravais-lattice index     =            0
     lattice parameter (alat)  =       4.6500  a.u.
     unit-cell volume          =    1044.8904 (a.u.)^3
     number of atoms/cell      =            2
     number of atomic types    =            1
     number of electrons       =         8.00
     number of Kohn-Sham states=            8
     kinetic-energy cutoff     =      70.0000  Ry
     charge density cutoff     =     600.0000  Ry
     convergence threshold     =      1.0E-08
     mixing beta               =       0.7000
     number of iterations used =            8  plain     mixing
     Exchange-correlation      =  SLA  PW   PBE  PBE ( 1 4 3 4 0)
     EXX-fraction              =        0.00

     celldm(1)=   4.650000  celldm(2)=   0.000000  celldm(3)=   0.000000
     celldm(4)=   0.000000  celldm(5)=   0.000000  celldm(6)=   0.000000

     crystal axes: (cart. coord. in units of alat)
               a(1) = (   1.000000   0.000000   0.000000 )  
               a(2) = (   0.500000   0.866025   0.000000 )  
               a(3) = (   0.000000   0.000000  12.000000 )  

     reciprocal axes: (cart. coord. in units 2 pi/alat)
               b(1) = (  1.000000 -0.577350  0.000000 )  
               b(2) = (  0.000000  1.154701  0.000000 )  
               b(3) = (  0.000000  0.000000  0.083333 )  


     PseudoPot. # 1 for C  read from file:
     ./C.pbe-rrkjus.UPF
     MD5 check sum: 00fb224312de0c5b6853bd333518df6f
     Pseudo is Ultrasoft, Zval =  4.0
     Generated by new atomic code, or converted to UPF format
     Using radial grid of  627 points,  4 beta functions with: 
                l(1) =   0
                l(2) =   0
                l(3) =   1
                l(4) =   1
     Q(r) pseudized with 0 coefficients 


     atomic species   valence    mass     pseudopotential
        C              4.00    12.00000     C ( 1.00)

     12 Sym. Ops. (no inversion) found
          (note: 12 additional sym.ops. were found but ignored
           their fractional translations are incommensurate with FFT grid)


   Cartesian axes

     site n.     atom                  positions (alat units)
         1           C   tau(   1) = (   0.0000000   0.0000000   0.0000000  )
         2           C   tau(   2) = (   1.0000000   0.5773503   0.0000000  )

     number of k points=    12  gaussian smearing, width (Ry)=  0.0010
                       cart. coord. in units 2pi/alat
        k(    1) = (   0.0000000   0.0000000   0.0000000), wk =   0.0246914
        k(    2) = (   0.0000000   0.1283001   0.0000000), wk =   0.1481481
        k(    3) = (   0.0000000   0.2566001   0.0000000), wk =   0.1481481
        k(    4) = (   0.0000000   0.3849002   0.0000000), wk =   0.1481481
        k(    5) = (   0.0000000   0.5132002   0.0000000), wk =   0.1481481
        k(    6) = (   0.1111111   0.1924501   0.0000000), wk =   0.1481481
        k(    7) = (   0.1111111   0.3207502   0.0000000), wk =   0.2962963
        k(    8) = (   0.1111111   0.4490502   0.0000000), wk =   0.2962963
        k(    9) = (   0.1111111  -0.5773503   0.0000000), wk =   0.1481481
        k(   10) = (   0.2222222   0.3849002   0.0000000), wk =   0.1481481
        k(   11) = (   0.2222222  -0.6415003   0.0000000), wk =   0.2962963
        k(   12) = (   0.3333333  -0.5773503   0.0000000), wk =   0.0493827

     Dense  grid:   258975 G-vectors     FFT dimensions: (  40,  40, 450)

     Smooth grid:    82857 G-vectors     FFT dimensions: (  25,  25, 300)

     Largest allocated arrays     est. size (Mb)     dimensions
        Kohn-Sham Wavefunctions         0.33 Mb     (   2675,    8)
        NL pseudopotentials             0.65 Mb     (   2675,   16)
        Each V/rho on FFT grid          2.76 Mb     ( 180800)
        Each G-vector array             0.49 Mb     (  64734)
        G-vector shells                 0.14 Mb     (  18909)
     Largest temporary arrays     est. size (Mb)     dimensions
        Auxiliary wavefunctions         1.31 Mb     (   2675,   32)
        Each subspace H/S matrix        0.02 Mb     (  32,  32)
        Each <psi_i|beta_j> matrix      0.00 Mb     (     16,    8)
        Arrays for rho mixing          22.07 Mb     ( 180800,   8)

     Initial potential from superposition of free atoms

     starting charge    7.99989, renormalised to    8.00000

     negative rho (up, down):  0.292E-04 0.000E+00
     Starting wfc are    8 randomized atomic wfcs

     total cpu time spent up to now is        3.1 secs

     per-process dynamical memory:    37.1 Mb

     Self-consistent Calculation

     iteration #  1     ecut=    70.00 Ry     beta=0.70
     Davidson diagonalization with overlap
     ethr =  1.00E-02,  avg # of iterations =  5.2

     negative rho (up, down):  0.826E-05 0.000E+00

     total cpu time spent up to now is        7.5 secs

     total energy              =     -22.75839245 Ry
     Harris-Foulkes estimate   =     -22.88289132 Ry
     estimated scf accuracy    <       0.20657154 Ry

     iteration #  2     ecut=    70.00 Ry     beta=0.70
     Davidson diagonalization with overlap
     ethr =  2.58E-03,  avg # of iterations =  4.2

     negative rho (up, down):  0.367E-05 0.000E+00

     total cpu time spent up to now is       11.1 secs

     total energy              =     -22.78951473 Ry
     Harris-Foulkes estimate   =     -22.78965163 Ry
     estimated scf accuracy    <       0.00251378 Ry

     iteration #  3     ecut=    70.00 Ry     beta=0.70
     Davidson diagonalization with overlap
     ethr =  3.14E-05,  avg # of iterations =  9.8

     negative rho (up, down):  0.363E-05 0.000E+00

     total cpu time spent up to now is       16.3 secs

     total energy              =     -22.78987767 Ry
     Harris-Foulkes estimate   =     -22.78984728 Ry
     estimated scf accuracy    <       0.00013724 Ry

     iteration #  4     ecut=    70.00 Ry     beta=0.70
     Davidson diagonalization with overlap
     ethr =  1.72E-06,  avg # of iterations =  4.0

     negative rho (up, down):  0.331E-05 0.000E+00

     total cpu time spent up to now is       19.9 secs

     total energy              =     -22.78988217 Ry
     Harris-Foulkes estimate   =     -22.78988265 Ry
     estimated scf accuracy    <       0.00000332 Ry

     iteration #  5     ecut=    70.00 Ry     beta=0.70
     Davidson diagonalization with overlap
     ethr =  4.15E-08,  avg # of iterations =  2.1

     negative rho (up, down):  0.324E-05 0.000E+00

     total cpu time spent up to now is       23.2 secs

     total energy              =     -22.78988177 Ry
     Harris-Foulkes estimate   =     -22.78988546 Ry
     estimated scf accuracy    <       0.00002416 Ry

     iteration #  6     ecut=    70.00 Ry     beta=0.70
     Davidson diagonalization with overlap
     ethr =  4.15E-08,  avg # of iterations =  1.3

     negative rho (up, down):  0.321E-05 0.000E+00

     total cpu time spent up to now is       26.3 secs

     total energy              =     -22.78988356 Ry
     Harris-Foulkes estimate   =     -22.78988355 Ry
     estimated scf accuracy    <       0.00000002 Ry

     iteration #  7     ecut=    70.00 Ry     beta=0.70
     Davidson diagonalization with overlap
     ethr =  2.36E-10,  avg # of iterations =  3.0

     negative rho (up, down):  0.319E-05 0.000E+00

     total cpu time spent up to now is       29.8 secs

     End of self-consistent calculation

          k = 0.0000 0.0000 0.0000 ( 10361 PWs)   bands (ev):

   -22.4912 -10.6016  -6.0243  -6.0243   0.3076   1.0666   1.2714   1.6134

          k = 0.0000 0.1283 0.0000 ( 10297 PWs)   bands (ev):

   -22.1994 -10.2525  -7.1342  -6.5975   0.7050   1.4702   1.6800   2.0201

          k = 0.0000 0.2566 0.0000 ( 10305 PWs)   bands (ev):

   -21.3296  -9.6756  -9.2231  -7.7535   1.8961   2.6754   2.9059   3.2377

          k = 0.0000 0.3849 0.0000 ( 10283 PWs)   bands (ev):

   -19.9029 -12.6019  -8.7746  -7.5939   1.9771   3.8645   4.7047   4.8272

          k = 0.0000 0.5132 0.0000 ( 10358 PWs)   bands (ev):

   -17.9946 -15.3471  -9.3386  -5.7455  -0.7264   4.5364   6.6327   7.4802

          k = 0.1111 0.1925 0.0000 ( 10276 PWs)   bands (ev):

   -21.6186  -9.5625  -8.6840  -7.7424   1.5002   2.2759   2.4973   2.8329

          k = 0.1111 0.3208 0.0000 ( 10335 PWs)   bands (ev):

   -20.4702 -11.1285  -9.1253  -8.2234   3.0861   3.2314   3.8942   4.1318

          k = 0.1111 0.4491 0.0000 ( 10353 PWs)   bands (ev):

   -18.7921 -13.8868 -10.0050  -6.3914   0.3825   5.4250   5.9061   6.2638

          k = 0.1111-0.5774 0.0000 ( 10364 PWs)   bands (ev):

   -17.0421 -16.0364 -10.3046  -5.0517  -1.3457   5.7305   8.4430   8.6153

          k = 0.2222 0.3849 0.0000 ( 10344 PWs)   bands (ev):

   -19.0680 -12.6385 -11.1394  -6.6378   1.0116   5.0556   5.8272   6.1747

          k = 0.2222-0.6415 0.0000 ( 10332 PWs)   bands (ev):

   -17.2151 -14.7543 -12.1360  -4.7570  -1.2324   7.7335   7.9503   8.5923

          k = 0.3333-0.5774 0.0000 ( 10368 PWs)   bands (ev):

   -15.5522 -15.5521 -13.5624  -2.9489  -2.9487   7.6897   9.9574   9.9574

     the Fermi energy is    -2.9488 ev

!    total energy              =     -22.78988358 Ry
     Harris-Foulkes estimate   =     -22.78988359 Ry
     estimated scf accuracy    <          9.5E-09 Ry

     The total energy is the sum of the following terms:

     one-electron contribution =    -353.75975917 Ry
     hartree contribution      =     177.89034248 Ry
     xc contribution           =      -7.02468046 Ry
     ewald contribution        =     160.10424143 Ry
     smearing contrib. (-TS)   =      -0.00002786 Ry

     convergence has been achieved in   7 iterations

     Writing output data file graphene.save

     init_run     :      2.92s CPU      3.04s WALL (       1 calls)
     electrons    :     25.65s CPU     26.72s WALL (       1 calls)

     Called by init_run:
     wfcinit      :      0.74s CPU      0.77s WALL (       1 calls)
     potinit      :      0.99s CPU      1.03s WALL (       1 calls)

     Called by electrons:
     c_bands      :     15.41s CPU     15.92s WALL (       7 calls)
     sum_band     :      5.31s CPU      5.51s WALL (       7 calls)
     v_of_rho     :      2.50s CPU      2.69s WALL (       8 calls)
     newd         :      2.05s CPU      2.11s WALL (       8 calls)
     mix_rho      :      0.37s CPU      0.38s WALL (       7 calls)

     Called by c_bands:
     init_us_2    :      0.31s CPU      0.35s WALL (     180 calls)
     cegterg      :     15.00s CPU     15.44s WALL (      84 calls)

     Called by *egterg:
     h_psi        :     13.78s CPU     14.17s WALL (     451 calls)
     s_psi        :      0.23s CPU      0.23s WALL (     451 calls)
     g_psi        :      0.11s CPU      0.11s WALL (     355 calls)
     cdiaghg      :      0.17s CPU      0.18s WALL (     439 calls)

     Called by h_psi:
     add_vuspsi   :      0.23s CPU      0.24s WALL (     451 calls)

     General routines
     calbec       :      0.38s CPU      0.38s WALL (     535 calls)
     fft          :      2.25s CPU      2.38s WALL (     123 calls)
     ffts         :      0.05s CPU      0.06s WALL (      15 calls)
     fftw         :      9.69s CPU     10.02s WALL (    4858 calls)
     interpolate  :      0.39s CPU      0.41s WALL (      15 calls)
     davcio       :      0.08s CPU      0.09s WALL (     264 calls)

     Parallel routines
     fft_scatter  :      5.93s CPU      6.15s WALL (    4996 calls)

     PWSCF        :    28.79s CPU        30.00s WALL


   This run was terminated on:   6:34:32  26Jul2015            

=------------------------------------------------------------------------------=
   JOB DONE.
=------------------------------------------------------------------------------=
