
     Program PWSCF v.5.0.2 (svn rev. 9656) starts on 11Jul2015 at 20:33:16 

     This program is part of the open-source Quantum ESPRESSO suite
     for quantum simulation of materials; please cite
         "P. Giannozzi et al., J. Phys.:Condens. Matter 21 395502 (2009);
          URL http://www.quantum-espresso.org", 
     in publications or presentations arising from this work. More details at
     http://www.quantum-espresso.org/quote.php

     Parallel version (MPI), running on     4 processors
     R & G space division:  proc/nbgrp/npool/nimage =       4

     Current dimensions of program PWSCF are:
     Max number of different atomic species (ntypx) = 10
     Max number of k-points (npk) =  40000
     Max angular momentum in pseudopotentials (lmaxx) =  3
     Waiting for input...
     Reading input from standard input
               file Cu.pbe.UPF: wavefunction(s)  4S 3D renormalized

     Subspace diagonalization in iterative solution of the eigenvalue problem:
     a serial algorithm will be used


     Parallelization info
     --------------------
     sticks:   dense  smooth     PW     G-vecs:    dense   smooth      PW
     Min         250     250     75                 5217     5217     869
     Max         251     251     76                 5220     5220     872
     Sum        1003    1003    301                20875    20875    3479



     bravais-lattice index     =            2
     lattice parameter (alat)  =      10.2000  a.u.
     unit-cell volume          =     265.3020 (a.u.)^3
     number of atoms/cell      =            2
     number of atomic types    =            1
     number of electrons       =        22.00
     number of Kohn-Sham states=           15
     kinetic-energy cutoff     =      70.0000  Ry
     charge density cutoff     =     280.0000  Ry
     convergence threshold     =      1.0E-07
     mixing beta               =       0.7000
     number of iterations used =            8  plain     mixing
     Exchange-correlation      =  SLA  PW   PBX  PBC ( 1 4 3 4 0)
     EXX-fraction              =        0.00

     celldm(1)=  10.200000  celldm(2)=   0.000000  celldm(3)=   0.000000
     celldm(4)=   0.000000  celldm(5)=   0.000000  celldm(6)=   0.000000

     crystal axes: (cart. coord. in units of alat)
               a(1) = (  -0.500000   0.000000   0.500000 )  
               a(2) = (   0.000000   0.500000   0.500000 )  
               a(3) = (  -0.500000   0.500000   0.000000 )  

     reciprocal axes: (cart. coord. in units 2 pi/alat)
               b(1) = ( -1.000000 -1.000000  1.000000 )  
               b(2) = (  1.000000  1.000000  1.000000 )  
               b(3) = ( -1.000000  1.000000 -1.000000 )  


     PseudoPot. # 1 for Cu read from file:
     ./Cu.pbe.UPF
     MD5 check sum: 0c51aa2b3b25e0d1c3270f17c0a46a12
     Pseudo is Projector augmented-wave + core cor, Zval = 11.0
     Generated using "atomic" code by A. Dal Corso  v.5.0.99 svn rev. 10869
     Shape of augmentation charge: BESSEL
     Using radial grid of 1199 points,  6 beta functions with: 
                l(1) =   0
                l(2) =   0
                l(3) =   1
                l(4) =   1
                l(5) =   2
                l(6) =   2
     Q(r) pseudized with 0 coefficients 


     atomic species   valence    mass     pseudopotential
        Cu            11.00    63.54600     Cu( 1.00)

     48 Sym. Ops., with inversion, found (24 have fractional translation)



   Cartesian axes

     site n.     atom                  positions (alat units)
         1           Cu  tau(   1) = (   0.0000000   0.0000000   0.0000000  )
         2           Cu  tau(   2) = (   0.2500000   0.2500000   0.2500000  )

     number of k points=    72  gaussian smearing, width (Ry)=  0.0030
                       cart. coord. in units 2pi/alat
        k(    1) = (   0.0000000   0.0000000   0.0000000), wk =   0.0011574
        k(    2) = (  -0.0833333   0.0833333  -0.0833333), wk =   0.0092593
        k(    3) = (  -0.1666667   0.1666667  -0.1666667), wk =   0.0092593
        k(    4) = (  -0.2500000   0.2500000  -0.2500000), wk =   0.0092593
        k(    5) = (  -0.3333333   0.3333333  -0.3333333), wk =   0.0092593
        k(    6) = (  -0.4166667   0.4166667  -0.4166667), wk =   0.0092593
        k(    7) = (   0.5000000  -0.5000000   0.5000000), wk =   0.0046296
        k(    8) = (   0.0000000   0.1666667   0.0000000), wk =   0.0069444
        k(    9) = (  -0.0833333   0.2500000  -0.0833333), wk =   0.0277778
        k(   10) = (  -0.1666667   0.3333333  -0.1666667), wk =   0.0277778
        k(   11) = (  -0.2500000   0.4166667  -0.2500000), wk =   0.0277778
        k(   12) = (  -0.3333333   0.5000000  -0.3333333), wk =   0.0277778
        k(   13) = (   0.5833333  -0.4166667   0.5833333), wk =   0.0277778
        k(   14) = (   0.5000000  -0.3333333   0.5000000), wk =   0.0277778
        k(   15) = (   0.4166667  -0.2500000   0.4166667), wk =   0.0277778
        k(   16) = (   0.3333333  -0.1666667   0.3333333), wk =   0.0277778
        k(   17) = (   0.2500000  -0.0833333   0.2500000), wk =   0.0277778
        k(   18) = (   0.1666667  -0.0000000   0.1666667), wk =   0.0138889
        k(   19) = (   0.0000000   0.3333333   0.0000000), wk =   0.0069444
        k(   20) = (  -0.0833333   0.4166667  -0.0833333), wk =   0.0277778
        k(   21) = (  -0.1666667   0.5000000  -0.1666667), wk =   0.0277778
        k(   22) = (  -0.2500000   0.5833333  -0.2500000), wk =   0.0277778
        k(   23) = (   0.6666667  -0.3333333   0.6666667), wk =   0.0277778
        k(   24) = (   0.5833333  -0.2500000   0.5833333), wk =   0.0277778
        k(   25) = (   0.5000000  -0.1666667   0.5000000), wk =   0.0277778
        k(   26) = (   0.4166667  -0.0833333   0.4166667), wk =   0.0277778
        k(   27) = (   0.3333333   0.0000000   0.3333333), wk =   0.0138889
        k(   28) = (   0.0000000   0.5000000   0.0000000), wk =   0.0069444
        k(   29) = (  -0.0833333   0.5833333  -0.0833333), wk =   0.0277778
        k(   30) = (  -0.1666667   0.6666667  -0.1666667), wk =   0.0277778
        k(   31) = (   0.7500000  -0.2500000   0.7500000), wk =   0.0277778
        k(   32) = (   0.6666667  -0.1666667   0.6666667), wk =   0.0277778
        k(   33) = (   0.5833333  -0.0833333   0.5833333), wk =   0.0277778
        k(   34) = (   0.5000000   0.0000000   0.5000000), wk =   0.0138889
        k(   35) = (   0.0000000   0.6666667   0.0000000), wk =   0.0069444
        k(   36) = (  -0.0833333   0.7500000  -0.0833333), wk =   0.0277778
        k(   37) = (   0.8333333  -0.1666667   0.8333333), wk =   0.0277778
        k(   38) = (   0.7500000  -0.0833333   0.7500000), wk =   0.0277778
        k(   39) = (   0.6666667  -0.0000000   0.6666667), wk =   0.0138889
        k(   40) = (   0.0000000   0.8333333   0.0000000), wk =   0.0069444
        k(   41) = (   0.9166667  -0.0833333   0.9166667), wk =   0.0277778
        k(   42) = (   0.8333333   0.0000000   0.8333333), wk =   0.0138889
        k(   43) = (   0.0000000  -1.0000000   0.0000000), wk =   0.0034722
        k(   44) = (  -0.1666667   0.3333333   0.0000000), wk =   0.0277778
        k(   45) = (  -0.2500000   0.4166667  -0.0833333), wk =   0.0555556
        k(   46) = (  -0.3333333   0.5000000  -0.1666667), wk =   0.0555556
        k(   47) = (   0.5833333  -0.4166667   0.7500000), wk =   0.0555556
        k(   48) = (   0.5000000  -0.3333333   0.6666667), wk =   0.0277778
        k(   49) = (  -0.1666667   0.5000000   0.0000000), wk =   0.0277778
        k(   50) = (  -0.2500000   0.5833333  -0.0833333), wk =   0.0555556
        k(   51) = (   0.6666667  -0.3333333   0.8333333), wk =   0.0555556
        k(   52) = (   0.5833333  -0.2500000   0.7500000), wk =   0.0555556
        k(   53) = (   0.5000000  -0.1666667   0.6666667), wk =   0.0555556
        k(   54) = (   0.4166667  -0.0833333   0.5833333), wk =   0.0555556
        k(   55) = (   0.3333333   0.0000000   0.5000000), wk =   0.0277778
        k(   56) = (  -0.1666667   0.6666667  -0.0000000), wk =   0.0277778
        k(   57) = (   0.7500000  -0.2500000   0.9166667), wk =   0.0555556
        k(   58) = (   0.6666667  -0.1666667   0.8333333), wk =   0.0555556
        k(   59) = (   0.5833333  -0.0833333   0.7500000), wk =   0.0555556
        k(   60) = (   0.5000000   0.0000000   0.6666667), wk =   0.0277778
        k(   61) = (   0.8333333  -0.1666667   1.0000000), wk =   0.0277778
        k(   62) = (   0.7500000  -0.0833333   0.9166667), wk =   0.0555556
        k(   63) = (   0.6666667   0.0000000   0.8333333), wk =   0.0277778
        k(   64) = (  -0.1666667  -1.0000000  -0.0000000), wk =   0.0138889
        k(   65) = (   0.6666667  -0.3333333   1.0000000), wk =   0.0277778
        k(   66) = (   0.5833333  -0.2500000   0.9166667), wk =   0.0555556
        k(   67) = (   0.5000000  -0.1666667   0.8333333), wk =   0.0277778
        k(   68) = (   0.6666667  -0.1666667   1.0000000), wk =   0.0277778
        k(   69) = (   0.5833333  -0.0833333   0.9166667), wk =   0.0555556
        k(   70) = (   0.5000000   0.0000000   0.8333333), wk =   0.0277778
        k(   71) = (  -0.3333333  -1.0000000   0.0000000), wk =   0.0138889
        k(   72) = (  -0.5000000  -1.0000000   0.0000000), wk =   0.0069444

     Dense  grid:    20875 G-vectors     FFT dimensions: (  40,  40,  40)

     Largest allocated arrays     est. size (Mb)     dimensions
        Kohn-Sham Wavefunctions         0.15 Mb     (    668,   15)
        NL pseudopotentials             0.37 Mb     (    668,   36)
        Each V/rho on FFT grid          0.24 Mb     (  16000)
        Each G-vector array             0.04 Mb     (   5220)
        G-vector shells                 0.00 Mb     (    247)
     Largest temporary arrays     est. size (Mb)     dimensions
        Auxiliary wavefunctions         0.61 Mb     (    668,   60)
        Each subspace H/S matrix        0.05 Mb     (  60,  60)
        Each <psi_i|beta_j> matrix      0.01 Mb     (     36,   15)
        Arrays for rho mixing           1.95 Mb     (  16000,   8)

     Check: negative/imaginary core charge=   -0.000072    0.000000

     Initial potential from superposition of free atoms

     starting charge   21.99954, renormalised to   22.00000
     Starting wfc are   18 randomized atomic wfcs
     Checking if some PAW data can be deallocated... 

     total cpu time spent up to now is        5.1 secs

     per-process dynamical memory:    13.4 Mb

     Self-consistent Calculation

     iteration #  1     ecut=    70.00 Ry     beta=0.70
     Davidson diagonalization with overlap
     ethr =  1.00E-02,  avg # of iterations =  3.6

     Threshold (ethr) on eigenvalues was too large:
     Diagonalizing with lowered threshold

     Davidson diagonalization with overlap
     ethr =  2.06E-05,  avg # of iterations =  4.7

     total cpu time spent up to now is       25.7 secs

     total energy              =    -426.04065377 Ry
     Harris-Foulkes estimate   =    -426.04104633 Ry
     estimated scf accuracy    <       0.00571207 Ry

     iteration #  2     ecut=    70.00 Ry     beta=0.70
     Davidson diagonalization with overlap
     ethr =  2.60E-05,  avg # of iterations =  2.0

     total cpu time spent up to now is       34.5 secs

     total energy              =    -426.03923237 Ry
     Harris-Foulkes estimate   =    -426.04267800 Ry
     estimated scf accuracy    <       0.00711280 Ry

     iteration #  3     ecut=    70.00 Ry     beta=0.70
     Davidson diagonalization with overlap
     ethr =  2.60E-05,  avg # of iterations =  2.2

     total cpu time spent up to now is       43.5 secs

     total energy              =    -426.04101601 Ry
     Harris-Foulkes estimate   =    -426.04191500 Ry
     estimated scf accuracy    <       0.00310644 Ry

     iteration #  4     ecut=    70.00 Ry     beta=0.70
     Davidson diagonalization with overlap
     ethr =  1.41E-05,  avg # of iterations =  1.1

     total cpu time spent up to now is       50.6 secs

     total energy              =    -426.04141509 Ry
     Harris-Foulkes estimate   =    -426.04141567 Ry
     estimated scf accuracy    <       0.00000430 Ry

     iteration #  5     ecut=    70.00 Ry     beta=0.70
     Davidson diagonalization with overlap
     ethr =  1.96E-08,  avg # of iterations =  3.9

     total cpu time spent up to now is       62.2 secs

     total energy              =    -426.04144466 Ry
     Harris-Foulkes estimate   =    -426.04144510 Ry
     estimated scf accuracy    <       0.00000341 Ry

     iteration #  6     ecut=    70.00 Ry     beta=0.70
     Davidson diagonalization with overlap
     ethr =  1.55E-08,  avg # of iterations =  1.0

     total cpu time spent up to now is       69.4 secs

     total energy              =    -426.04144483 Ry
     Harris-Foulkes estimate   =    -426.04144481 Ry
     estimated scf accuracy    <       0.00000104 Ry

     iteration #  7     ecut=    70.00 Ry     beta=0.70
     Davidson diagonalization with overlap
     ethr =  4.72E-09,  avg # of iterations =  1.0

     total cpu time spent up to now is       76.6 secs

     total energy              =    -426.04144475 Ry
     Harris-Foulkes estimate   =    -426.04144484 Ry
     estimated scf accuracy    <       0.00000115 Ry

     iteration #  8     ecut=    70.00 Ry     beta=0.70
     Davidson diagonalization with overlap
     ethr =  4.72E-09,  avg # of iterations =  1.0

     total cpu time spent up to now is       83.8 secs

     total energy              =    -426.04144474 Ry
     Harris-Foulkes estimate   =    -426.04144477 Ry
     estimated scf accuracy    <       0.00000061 Ry

     iteration #  9     ecut=    70.00 Ry     beta=0.70
     Davidson diagonalization with overlap
     ethr =  2.78E-09,  avg # of iterations =  1.0

     total cpu time spent up to now is       91.0 secs

     total energy              =    -426.04144463 Ry
     Harris-Foulkes estimate   =    -426.04144475 Ry
     estimated scf accuracy    <       0.00000046 Ry

     iteration # 10     ecut=    70.00 Ry     beta=0.70
     Davidson diagonalization with overlap
     ethr =  2.11E-09,  avg # of iterations =  1.1

     total cpu time spent up to now is       98.1 secs

     End of self-consistent calculation

          k = 0.0000 0.0000 0.0000 (  2685 PWs)   bands (ev):

     0.6888   3.9856   3.9856   3.9856   4.0085   4.0085   5.0409   5.0409
     5.0409   5.6651   5.6651  16.3928  16.3928  16.3928  17.3402

          k =-0.0833 0.0833-0.0833 (  2667 PWs)   bands (ev):

     0.7952   3.9252   3.9252   3.9878   4.0861   4.0861   5.0191   5.0373
     5.0373   5.6657   5.6657  14.7433  15.8824  15.8824  17.8326

          k =-0.1667 0.1667-0.1667 (  2644 PWs)   bands (ev):

     1.1088   3.8843   3.8843   3.9965   4.1680   4.1680   4.9618   5.0368
     5.0368   5.6644   5.6644  12.6161  15.1858  15.1858  17.7266

          k =-0.2500 0.2500-0.2500 (  2632 PWs)   bands (ev):

     1.6078   3.8775   3.8775   4.0158   4.2129   4.2129   4.8971   5.0633
     5.0633   5.6550   5.6550  10.6102  14.5941  14.5941  17.5934

          k =-0.3333 0.3333-0.3333 (  2641 PWs)   bands (ev):

     2.2321   3.9037   3.9037   4.0407   4.2020   4.2020   4.8943   5.1280
     5.1280   5.6324   5.6324   8.8107  14.1489  14.1489  17.5649

          k =-0.4167 0.4167-0.4167 (  2602 PWs)   bands (ev):

     2.8219   3.9539   3.9539   4.0455   4.1502   4.1502   5.1025   5.2053
     5.2053   5.6006   5.6006   7.2990  13.8718  13.8718  17.6467

          k = 0.5000-0.5000 0.5000 (  2608 PWs)   bands (ev):

     3.0790   3.9916   3.9916   4.0331   4.1096   4.1096   5.2425   5.2425
     5.4616   5.5825   5.5825   6.4561  13.7774  13.7774  17.7417

          k = 0.0000 0.1667 0.0000 (  2673 PWs)   bands (ev):

     0.8309   3.8672   3.9918   3.9918   4.0394   4.1336   4.9543   5.0663
     5.0663   5.6399   5.6885  15.1280  15.1280  15.6639  16.7518

          k =-0.0833 0.2500-0.0833 (  2645 PWs)   bands (ev):

     1.0761   3.8161   3.9640   3.9981   4.1132   4.2088   4.8711   5.0795
     5.0928   5.6156   5.7050  13.3320  14.4172  15.2825  16.9787

          k =-0.1667 0.3333-0.1667 (  2629 PWs)   bands (ev):

     1.5153   3.7953   3.9521   4.0088   4.1709   4.2713   4.8024   5.0834
     5.1332   5.5917   5.7119  11.3063  13.8562  14.6572  17.2307

          k =-0.2500 0.4167-0.2500 (  2628 PWs)   bands (ev):

     2.1046   3.8078   3.9672   4.0254   4.1790   4.2843   4.7879   5.1201
     5.1943   5.5674   5.7037   9.4410  13.4859  14.0260  16.9954

          k =-0.3333 0.5000-0.3333 (  2627 PWs)   bands (ev):

     2.7251   3.8453   3.9939   4.0357   4.1534   4.2433   4.8938   5.2438
     5.2458   5.5567   5.6760   7.8169  13.3318  13.4795  16.8331

          k = 0.5833-0.4167 0.5833 (  2612 PWs)   bands (ev):

     3.1178   3.8868   3.9809   4.0410   4.1604   4.1754   5.0807   5.2274
     5.5726   5.5864   5.6568   6.6024  13.0792  13.4062  16.8654

          k = 0.5000-0.3333 0.5000 (  2610 PWs)   bands (ev):

     3.0298   3.9204   3.9284   4.0743   4.1115   4.2182   5.1066   5.1490
     5.4674   5.5735   5.6395   6.9386  12.8691  13.7037  17.1016

          k = 0.4167-0.2500 0.4167 (  2624 PWs)   bands (ev):

     2.5251   3.8607   3.9515   4.0422   4.1424   4.2755   4.9171   5.0549
     5.2948   5.5576   5.6828   8.3321  12.8711  14.1985  17.5329

          k = 0.3333-0.1667 0.3333 (  2627 PWs)   bands (ev):

     1.8945   3.8248   3.9392   4.0139   4.1721   4.2926   4.8569   4.9892
     5.2150   5.5787   5.7044  10.0465  13.0851  14.8453  18.0873

          k = 0.2500-0.0833 0.2500 (  2633 PWs)   bands (ev):

     1.3479   3.8229   3.9289   4.0014   4.1570   4.2513   4.8952   4.9766
     5.1490   5.6086   5.7049  11.9771  13.4962  15.5716  18.1253

          k = 0.1667-0.0000 0.1667 (  2661 PWs)   bands (ev):

     0.9710   3.8578   3.9350   3.9957   4.1065   4.1712   4.9616   5.0023
     5.0939   5.6383   5.6896  13.9540  14.1625  16.1561  17.6418

          k = 0.0000 0.3333 0.0000 (  2637 PWs)   bands (ev):

     1.2519   3.7533   4.0059   4.0059   4.1297   4.2690   4.7385   5.1455
     5.1455   5.5652   5.7320  13.6732  13.6732  14.2003  15.9095

          k =-0.0833 0.4167-0.0833 (  2628 PWs)   bands (ev):

     1.6254   3.7180   4.0053   4.0113   4.1942   4.3339   4.6257   5.1890
     5.2029   5.5193   5.7502  12.0363  13.0769  13.7192  16.0392

          k =-0.1667 0.5000-0.1667 (  2632 PWs)   bands (ev):

     2.1628   3.7159   4.0086   4.0113   4.2334   4.3626   4.5842   5.2373
     5.2586   5.4915   5.7603  10.1814  12.6833  13.0173  16.0587

          k =-0.2500 0.5833-0.2500 (  2630 PWs)   bands (ev):

     2.7716   3.7391   4.0047   4.0073   4.2493   4.3257   4.6679   5.2587
     5.3635   5.5206   5.7593   8.4909  12.3140  12.5283  15.9539

          k = 0.6667-0.3333 0.6667 (  2616 PWs)   bands (ev):

     3.2383   3.7672   3.9759   4.0034   4.2598   4.2788   4.8557   5.1859
     5.5970   5.6330   5.8402   7.0640  11.7375  12.6311  16.0056

          k = 0.5833-0.2500 0.5833 (  2618 PWs)   bands (ev):

     3.3000   3.8177   3.9159   4.0375   4.1748   4.3329   5.0123   5.0795
     5.6231   5.6691   5.9445   6.7295  11.3504  12.9882  16.2410

          k = 0.5000-0.1667 0.5000 (  2617 PWs)   bands (ev):

     2.9318   3.8531   3.8917   4.0841   4.0972   4.3846   4.9752   4.9885
     5.4673   5.5550   5.7163   8.0276  11.1871  13.5707  16.6628

          k = 0.4167-0.0833 0.4167 (  2622 PWs)   bands (ev):

     2.3456   3.8090   3.9471   4.0120   4.1452   4.3931   4.8722   4.9161
     5.3824   5.4984   5.7359   9.6453  11.2607  14.3211  17.2719

          k = 0.3333 0.0000 0.3333 (  2631 PWs)   bands (ev):

     1.7762   3.7970   3.9613   3.9866   4.1630   4.3384   4.8489   4.9257
     5.2713   5.5445   5.7305  11.3436  11.6897  15.1156  18.0571

          k = 0.0000 0.5000 0.0000 (  2650 PWs)   bands (ev):

     1.9318   3.6676   4.0189   4.0189   4.2718   4.3940   4.4621   5.2797
     5.2797   5.4444   5.7798  12.3785  12.4226  12.4226  15.2642

          k =-0.0833 0.5833-0.0833 (  2624 PWs)   bands (ev):

     2.4069   3.6526   4.0125   4.0211   4.3438   4.3521   4.4487   5.3196
     5.3565   5.4187   5.8113  10.8316  11.9154  11.9675  15.3599

          k =-0.1667 0.6667-0.1667 (  2620 PWs)   bands (ev):

     2.9728   3.6670   3.9762   4.0140   4.3204   4.3924   4.5123   5.2387
     5.4748   5.5139   5.8536   9.2355  11.1141  11.7597  15.3492

          k = 0.7500-0.2500 0.7500 (  2626 PWs)   bands (ev):

     3.4443   3.6887   3.9476   3.9863   4.2997   4.4345   4.6563   5.1267
     5.6139   5.6731   6.0147   7.7768  10.4012  11.8271  15.3933

          k = 0.6667-0.1667 0.6667 (  2617 PWs)   bands (ev):

     3.5660   3.7517   3.9359   3.9701   4.2291   4.4828   4.8585   5.0026
     5.6885   5.7206   6.5339   6.7613   9.8773  12.1684  15.5966

          k = 0.5833-0.0833 0.5833 (  2620 PWs)   bands (ev):

     3.3446   3.8305   3.8772   4.0322   4.1378   4.5173   4.8972   4.9877
     5.6534   5.7317   5.7665   7.9225   9.5920  12.7506  15.9723

          k = 0.5000 0.0000 0.5000 (  2622 PWs)   bands (ev):

     2.8837   3.8296   3.8902   4.0620   4.0998   4.4861   4.8683   4.9618
     5.4671   5.5448   5.7461   9.2568   9.7281  13.5100  16.5291

          k = 0.0000 0.6667 0.0000 (  2626 PWs)   bands (ev):

     2.8144   3.6277   4.0255   4.0255   4.1796   4.4540   4.4890   5.2836
     5.4509   5.4509   5.8761  10.4044  11.4363  11.4363  14.8537

          k =-0.0833 0.7500-0.0833 (  2622 PWs)   bands (ev):

     3.3133   3.6386   3.9643   4.0224   4.1516   4.5107   4.5389   5.1802
     5.5481   5.5500   5.9825   9.3673  10.6324  11.1529  14.9437

          k = 0.8333-0.1667 0.8333 (  2618 PWs)   bands (ev):

     3.6632   3.7191   3.8876   4.0044   4.2484   4.5384   4.6023   5.0565
     5.6370   5.6866   6.2298   8.3265   9.5685  11.1572  14.9838

          k = 0.7500-0.0833 0.7500 (  2617 PWs)   bands (ev):

     3.6572   3.8619   3.9037   3.9682   4.2600   4.6513   4.6909   4.9250
     5.6972   5.7745   6.7759   7.3967   8.7563  11.4537  15.1468

          k = 0.6667-0.0000 0.6667 (  2612 PWs)   bands (ev):

     3.5943   3.8506   3.9209   3.9526   4.1947   4.6367   4.8532   4.8687
     5.7268   5.7626   6.3391   7.8343   8.4736  12.0071  15.4717

          k = 0.0000 0.8333 0.0000 (  2618 PWs)   bands (ev):

     3.6516   3.7284   3.9364   4.0269   4.0269   4.5082   4.6619   5.0915
     5.6071   5.6071   6.1845   8.5465  10.7856  10.7856  14.6619

          k = 0.9167-0.0833 0.9167 (  2612 PWs)   bands (ev):

     3.6902   3.8201   3.9847   4.0204   4.1815   4.4643   4.7558   4.9763
     5.6614   5.6796   6.5499   7.7580  10.0946  10.7117  14.7488

          k = 0.8333 0.0000 0.8333 (  2618 PWs)   bands (ev):

     3.6853   3.8107   3.9997   4.0035   4.2955   4.5202   4.7983   4.8680
     5.6911   5.7517   7.1440   7.1778   9.0444  10.9455  14.8705

          k = 0.0000-1.0000 0.0000 (  2586 PWs)   bands (ev):

     3.7522   3.7522   4.0267   4.0267   4.3292   4.3292   4.8796   4.8796
     5.6728   5.6728   7.0497   7.0497  10.5544  10.5544  14.6771

          k =-0.1667 0.3333 0.0000 (  2634 PWs)   bands (ev):

     1.3852   3.7731   3.9755   4.0022   4.1524   4.2816   4.7718   5.0713
     5.1779   5.5731   5.7263  12.5921  12.8702  15.0280  16.9508

          k =-0.2500 0.4167-0.0833 (  2630 PWs)   bands (ev):

     1.8749   3.7617   3.9828   4.0037   4.1809   4.3435   4.7123   5.0716
     5.2657   5.5298   5.7383  10.7690  12.3080  14.3642  17.1618

          k =-0.3333 0.5000-0.1667 (  2620 PWs)   bands (ev):

     2.4804   3.7817   3.9649   4.0379   4.1729   4.3509   4.7432   5.1170
     5.3453   5.5142   5.7335   8.9946  12.0469  13.6346  16.9727

          k = 0.5833-0.4167 0.7500 (  2624 PWs)   bands (ev):

     3.0373   3.8157   3.9309   4.0693   4.1655   4.3060   4.8886   5.1740
     5.4972   5.5700   5.7131   7.4654  11.9757  13.0600  16.8422

          k = 0.5000-0.3333 0.6667 (  2620 PWs)   bands (ev):

     3.2745   3.8265   3.9130   4.0634   4.1961   4.2611   5.0079   5.1440
     5.6214   5.6414   6.0131   6.4696  11.9950  12.8176  16.8040

          k =-0.1667 0.5000 0.0000 (  2627 PWs)   bands (ev):

     2.0502   3.6922   3.9993   4.0224   4.2488   4.3968   4.5176   5.2110
     5.3158   5.4624   5.7728  11.3354  11.7475  13.1892  16.2071

          k =-0.2500 0.5833-0.0833 (  2621 PWs)   bands (ev):

     2.6073   3.6986   3.9632   4.0408   4.2780   4.4119   4.5241   5.2260
     5.4029   5.4692   5.7926   9.7426  11.2476  12.4885  16.3307

          k = 0.6667-0.3333 0.8333 (  2625 PWs)   bands (ev):

     3.1613   3.7222   3.9181   4.0500   4.2915   4.3770   4.6611   5.1780
     5.5450   5.5848   5.8264   8.1671  10.9949  11.9545  16.3057

          k = 0.5833-0.2500 0.7500 (  2626 PWs)   bands (ev):

     3.4773   3.7398   3.8852   4.0490   4.2699   4.3765   4.8485   5.0746
     5.6532   5.7011   6.2510   6.8461  10.6990  11.8903  16.4319

          k = 0.5000-0.1667 0.6667 (  2624 PWs)   bands (ev):

     3.3825   3.7906   3.8626   4.0692   4.1975   4.4244   4.8718   5.0599
     5.6391   5.7035   5.9336   7.3070  10.4358  12.2538  16.7198

          k = 0.4167-0.0833 0.5833 (  2625 PWs)   bands (ev):

     2.9569   3.7846   3.8947   4.0770   4.1573   4.4580   4.7392   5.0995
     5.4755   5.5549   5.7619   8.7278  10.3600  12.8825  17.1553

          k = 0.3333 0.0000 0.5000 (  2624 PWs)   bands (ev):

     2.3886   3.7595   3.9508   4.0324   4.1774   4.4257   4.6785   5.0697
     5.4126   5.4640   5.7573  10.2338  10.6675  13.6604  17.6693

          k =-0.1667 0.6667-0.0000 (  2636 PWs)   bands (ev):

     2.8989   3.6487   3.9674   4.0375   4.2852   4.4133   4.4905   5.2502
     5.4640   5.4863   5.8664  10.0594  10.8641  11.4724  15.7072

          k = 0.7500-0.2500 0.9167 (  2627 PWs)   bands (ev):

     3.4021   3.6694   3.8974   4.0421   4.3178   4.4540   4.5465   5.1385
     5.5887   5.6141   5.9798   8.8465  10.1484  11.0271  15.8343

          k = 0.6667-0.1667 0.8333 (  2621 PWs)   bands (ev):

     3.6728   3.7131   3.8692   4.0311   4.3145   4.5222   4.6769   5.0089
     5.6775   5.7426   6.3807   7.6026   9.5124  11.0726  15.9488

          k = 0.5833-0.0833 0.7500 (  2614 PWs)   bands (ev):

     3.6205   3.8005   3.8576   4.0354   4.2446   4.5748   4.8058   4.9258
     5.7197   5.7550   6.4569   7.3996   9.0586  11.4639  16.2265

          k = 0.5000 0.0000 0.6667 (  2621 PWs)   bands (ev):

     3.3935   3.8097   3.8398   4.0709   4.1763   4.5636   4.7473   5.0328
     5.6788   5.6858   5.8475   8.4704   9.0379  12.0972  16.6624

          k = 0.8333-0.1667 1.0000 (  2619 PWs)   bands (ev):

     3.6615   3.7214   3.8731   4.0386   4.1794   4.5025   4.6340   5.0699
     5.6348   5.6381   6.2003   8.5392  10.2906  10.4674  15.4482

          k = 0.7500-0.0833 0.9167 (  2615 PWs)   bands (ev):

     3.6849   3.7881   3.9451   4.0316   4.3164   4.5152   4.7071   4.9362
     5.6962   5.7377   6.6538   7.7910   9.2473  10.4661  15.6018

          k = 0.6667 0.0000 0.8333 (  2623 PWs)   bands (ev):

     3.6658   3.8101   3.9483   4.0167   4.2952   4.6714   4.7187   4.8444
     5.7222   5.7882   7.0252   7.4412   8.4460  10.8423  15.8350

          k =-0.1667-1.0000-0.0000 (  2614 PWs)   bands (ev):

     3.7396   3.7396   4.0252   4.0252   4.3718   4.3718   4.8544   4.8544
     5.7007   5.7007   7.1089   7.1089  10.1252  10.1252  15.4172

          k = 0.6667-0.3333 1.0000 (  2626 PWs)   bands (ev):

     3.1216   3.7109   3.8921   4.0664   4.2972   4.5047   4.5139   5.1622
     5.5167   5.5741   5.8407   9.2750   9.8859  11.7281  17.4444

          k = 0.5833-0.2500 0.9167 (  2627 PWs)   bands (ev):

     3.5261   3.7300   3.8459   4.0718   4.3174   4.4921   4.6663   5.0487
     5.6686   5.7099   6.0569   8.0431   9.6363  11.0851  17.3900

          k = 0.5000-0.1667 0.8333 (  2628 PWs)   bands (ev):

     3.6779   3.7145   3.8460   4.0666   4.3345   4.4766   4.7923   4.9498
     5.7117   5.7508   6.6546   7.0418   9.6581  10.8137  17.3738

          k = 0.6667-0.1667 1.0000 (  2625 PWs)   bands (ev):

     3.6928   3.6989   3.8566   4.0607   4.4253   4.4556   4.6069   5.0050
     5.7031   5.7070   6.2931   8.3594   9.4141  10.1436  17.1979

          k = 0.5833-0.0833 0.9167 (  2623 PWs)   bands (ev):

     3.6942   3.7378   3.9352   4.0521   4.4112   4.5722   4.6909   4.8660
     5.7442   5.7787   6.8810   7.6134   8.8943   9.9425  17.3492

          k = 0.5000 0.0000 0.8333 (  2623 PWs)   bands (ev):

     3.6746   3.7467   3.8908   4.0614   4.3600   4.6378   4.6444   4.9026
     5.7436   5.7693   6.5927   7.8951   8.6964  10.3600  17.6078

          k =-0.3333-1.0000 0.0000 (  2614 PWs)   bands (ev):

     3.7182   3.7182   4.0212   4.0212   4.4684   4.4684   4.7917   4.7917
     5.7548   5.7548   7.2720   7.2720   9.4001   9.4001  17.0937

          k =-0.5000-1.0000 0.0000 (  2608 PWs)   bands (ev):

     3.7088   3.7088   4.0189   4.0189   4.5319   4.5319   4.7446   4.7446
     5.7810   5.7810   7.3942   7.3942   9.0470   9.0470  18.6893

     the Fermi energy is     6.8328 ev

!    total energy              =    -426.04144466 Ry
     Harris-Foulkes estimate   =    -426.04144468 Ry
     estimated scf accuracy    <       0.00000001 Ry

     total all-electron energy =     -6619.800981 Ry

     The total energy is the sum of the following terms:

     one-electron contribution =    -116.84469171 Ry
     hartree contribution      =      57.88944771 Ry
     xc contribution           =     -73.47616863 Ry
     ewald contribution        =    -127.80442419 Ry
     one-center paw contrib.   =    -165.80554938 Ry
     smearing contrib. (-TS)   =      -0.00005847 Ry

     convergence has been achieved in  10 iterations

     Writing output data file Cu.save

     init_run     :      4.10s CPU      4.24s WALL (       1 calls)
     electrons    :     90.52s CPU     93.03s WALL (       1 calls)

     Called by init_run:
     wfcinit      :      2.92s CPU      3.00s WALL (       1 calls)
     potinit      :      0.39s CPU      0.41s WALL (       1 calls)

     Called by electrons:
     c_bands      :     69.67s CPU     71.67s WALL (      11 calls)
     sum_band     :     15.28s CPU     15.59s WALL (      11 calls)
     v_of_rho     :      0.34s CPU      0.35s WALL (      11 calls)
     newd         :      0.78s CPU      0.78s WALL (      11 calls)
     mix_rho      :      0.94s CPU      0.95s WALL (      11 calls)

     Called by c_bands:
     init_us_2    :      1.61s CPU      1.67s WALL (    1656 calls)
     cegterg      :     65.54s CPU     67.32s WALL (     792 calls)

     Called by *egterg:
     h_psi        :     57.95s CPU     59.46s WALL (    2497 calls)
     s_psi        :      1.58s CPU      1.58s WALL (    2497 calls)
     g_psi        :      0.44s CPU      0.46s WALL (    1633 calls)
     cdiaghg      :      2.58s CPU      2.64s WALL (    2353 calls)

     Called by h_psi:
     add_vuspsi   :      1.59s CPU      1.62s WALL (    2497 calls)

     General routines
     calbec       :      2.50s CPU      2.48s WALL (    3289 calls)
     fft          :      0.17s CPU      0.18s WALL (     145 calls)
     fftw         :     60.41s CPU     62.11s WALL (   73316 calls)
     davcio       :      0.28s CPU      0.28s WALL (    2448 calls)

     Parallel routines
     fft_scatter  :     12.49s CPU     12.39s WALL (   73461 calls)

     PAW routines
     PAW_pot      :      3.86s CPU      4.03s WALL (      11 calls)
     PAW_ddot     :      0.89s CPU      0.91s WALL (     167 calls)
     PAW_symme    :      0.02s CPU      0.02s WALL (      22 calls)

     PWSCF        :  1m35.87s CPU     1m38.55s WALL


   This run was terminated on:  20:34:55  11Jul2015            

=------------------------------------------------------------------------------=
   JOB DONE.
=------------------------------------------------------------------------------=
