
     Program PWSCF v.5.0.2 (svn rev. 9656) starts on 11Jul2015 at 20:48:30 

     This program is part of the open-source Quantum ESPRESSO suite
     for quantum simulation of materials; please cite
         "P. Giannozzi et al., J. Phys.:Condens. Matter 21 395502 (2009);
          URL http://www.quantum-espresso.org", 
     in publications or presentations arising from this work. More details at
     http://www.quantum-espresso.org/quote.php

     Parallel version (MPI), running on     4 processors
     R & G space division:  proc/nbgrp/npool/nimage =       4

     Current dimensions of program PWSCF are:
     Max number of different atomic species (ntypx) = 10
     Max number of k-points (npk) =  40000
     Max angular momentum in pseudopotentials (lmaxx) =  3
     Waiting for input...
     Reading input from standard input
               file Cu.pbe.UPF: wavefunction(s)  4S 3D renormalized

     Subspace diagonalization in iterative solution of the eigenvalue problem:
     a serial algorithm will be used


     Parallelization info
     --------------------
     sticks:   dense  smooth     PW     G-vecs:    dense   smooth      PW
     Min         321     321     94                 7681     7681    1227
     Max         322     322     95                 7686     7686    1228
     Sum        1285    1285    379                30731    30731    4909



     bravais-lattice index     =            2
     lattice parameter (alat)  =      10.2000  a.u.
     unit-cell volume          =     265.3020 (a.u.)^3
     number of atoms/cell      =            2
     number of atomic types    =            1
     number of electrons       =        22.00
     number of Kohn-Sham states=           15
     kinetic-energy cutoff     =      90.0000  Ry
     charge density cutoff     =     360.0000  Ry
     convergence threshold     =      1.0E-07
     mixing beta               =       0.7000
     number of iterations used =            8  plain     mixing
     Exchange-correlation      =  SLA  PW   PBX  PBC ( 1 4 3 4 0)
     EXX-fraction              =        0.00

     celldm(1)=  10.200000  celldm(2)=   0.000000  celldm(3)=   0.000000
     celldm(4)=   0.000000  celldm(5)=   0.000000  celldm(6)=   0.000000

     crystal axes: (cart. coord. in units of alat)
               a(1) = (  -0.500000   0.000000   0.500000 )  
               a(2) = (   0.000000   0.500000   0.500000 )  
               a(3) = (  -0.500000   0.500000   0.000000 )  

     reciprocal axes: (cart. coord. in units 2 pi/alat)
               b(1) = ( -1.000000 -1.000000  1.000000 )  
               b(2) = (  1.000000  1.000000  1.000000 )  
               b(3) = ( -1.000000  1.000000 -1.000000 )  


     PseudoPot. # 1 for Cu read from file:
     ./Cu.pbe.UPF
     MD5 check sum: 0c51aa2b3b25e0d1c3270f17c0a46a12
     Pseudo is Projector augmented-wave + core cor, Zval = 11.0
     Generated using "atomic" code by A. Dal Corso  v.5.0.99 svn rev. 10869
     Shape of augmentation charge: BESSEL
     Using radial grid of 1199 points,  6 beta functions with: 
                l(1) =   0
                l(2) =   0
                l(3) =   1
                l(4) =   1
                l(5) =   2
                l(6) =   2
     Q(r) pseudized with 0 coefficients 


     atomic species   valence    mass     pseudopotential
        Cu            11.00    63.54600     Cu( 1.00)

     24 Sym. Ops. (no inversion) found
          (note: 24 additional sym.ops. were found but ignored
           their fractional translations are incommensurate with FFT grid)


   Cartesian axes

     site n.     atom                  positions (alat units)
         1           Cu  tau(   1) = (   0.0000000   0.0000000   0.0000000  )
         2           Cu  tau(   2) = (   0.2500000   0.2500000   0.2500000  )

     number of k points=    35  gaussian smearing, width (Ry)=  0.0030
                       cart. coord. in units 2pi/alat
        k(    1) = (   0.0000000   0.0000000   0.0000000), wk =   0.0027435
        k(    2) = (  -0.1111111   0.1111111  -0.1111111), wk =   0.0219479
        k(    3) = (  -0.2222222   0.2222222  -0.2222222), wk =   0.0219479
        k(    4) = (  -0.3333333   0.3333333  -0.3333333), wk =   0.0219479
        k(    5) = (  -0.4444444   0.4444444  -0.4444444), wk =   0.0219479
        k(    6) = (   0.0000000   0.2222222   0.0000000), wk =   0.0164609
        k(    7) = (  -0.1111111   0.3333333  -0.1111111), wk =   0.0658436
        k(    8) = (  -0.2222222   0.4444444  -0.2222222), wk =   0.0658436
        k(    9) = (  -0.3333333   0.5555556  -0.3333333), wk =   0.0658436
        k(   10) = (   0.5555556  -0.3333333   0.5555556), wk =   0.0658436
        k(   11) = (   0.4444444  -0.2222222   0.4444444), wk =   0.0658436
        k(   12) = (   0.3333333  -0.1111111   0.3333333), wk =   0.0658436
        k(   13) = (   0.2222222  -0.0000000   0.2222222), wk =   0.0329218
        k(   14) = (   0.0000000   0.4444444   0.0000000), wk =   0.0164609
        k(   15) = (  -0.1111111   0.5555556  -0.1111111), wk =   0.0658436
        k(   16) = (  -0.2222222   0.6666667  -0.2222222), wk =   0.0658436
        k(   17) = (   0.6666667  -0.2222222   0.6666667), wk =   0.0658436
        k(   18) = (   0.5555556  -0.1111111   0.5555556), wk =   0.0658436
        k(   19) = (   0.4444444   0.0000000   0.4444444), wk =   0.0329218
        k(   20) = (   0.0000000   0.6666667   0.0000000), wk =   0.0164609
        k(   21) = (  -0.1111111   0.7777778  -0.1111111), wk =   0.0658436
        k(   22) = (   0.7777778  -0.1111111   0.7777778), wk =   0.0658436
        k(   23) = (   0.6666667  -0.0000000   0.6666667), wk =   0.0329218
        k(   24) = (   0.0000000   0.8888889   0.0000000), wk =   0.0164609
        k(   25) = (   0.8888889   0.0000000   0.8888889), wk =   0.0329218
        k(   26) = (  -0.2222222   0.4444444   0.0000000), wk =   0.0658436
        k(   27) = (  -0.3333333   0.5555556  -0.1111111), wk =   0.1316872
        k(   28) = (   0.5555556  -0.3333333   0.7777778), wk =   0.1316872
        k(   29) = (  -0.2222222   0.6666667   0.0000000), wk =   0.0658436
        k(   30) = (   0.6666667  -0.2222222   0.8888889), wk =   0.1316872
        k(   31) = (   0.5555556  -0.1111111   0.7777778), wk =   0.1316872
        k(   32) = (   0.4444444   0.0000000   0.6666667), wk =   0.0658436
        k(   33) = (   0.7777778  -0.1111111   1.0000000), wk =   0.0658436
        k(   34) = (   0.6666667  -0.0000000   0.8888889), wk =   0.0658436
        k(   35) = (   0.5555556  -0.1111111   1.0000000), wk =   0.0658436

     Dense  grid:    30731 G-vectors     FFT dimensions: (  45,  45,  45)

     Largest allocated arrays     est. size (Mb)     dimensions
        Kohn-Sham Wavefunctions         0.22 Mb     (    972,   15)
        NL pseudopotentials             0.53 Mb     (    972,   36)
        Each V/rho on FFT grid          0.37 Mb     (  24300)
        Each G-vector array             0.06 Mb     (   7683)
        G-vector shells                 0.00 Mb     (    319)
     Largest temporary arrays     est. size (Mb)     dimensions
        Auxiliary wavefunctions         0.89 Mb     (    972,   60)
        Each subspace H/S matrix        0.05 Mb     (  60,  60)
        Each <psi_i|beta_j> matrix      0.01 Mb     (     36,   15)
        Arrays for rho mixing           2.97 Mb     (  24300,   8)

     Check: negative/imaginary core charge=   -0.000024    0.000000

     Initial potential from superposition of free atoms

     starting charge   21.99954, renormalised to   22.00000
     Starting wfc are   18 randomized atomic wfcs
     Checking if some PAW data can be deallocated... 

     total cpu time spent up to now is        4.5 secs

     per-process dynamical memory:    16.1 Mb

     Self-consistent Calculation

     iteration #  1     ecut=    90.00 Ry     beta=0.70
     Davidson diagonalization with overlap
     ethr =  1.00E-02,  avg # of iterations =  3.7

     Threshold (ethr) on eigenvalues was too large:
     Diagonalizing with lowered threshold

     Davidson diagonalization with overlap
     ethr =  1.05E-04,  avg # of iterations =  3.3

     total cpu time spent up to now is       17.6 secs

     total energy              =    -426.02704513 Ry
     Harris-Foulkes estimate   =    -426.04176438 Ry
     estimated scf accuracy    <       0.02191668 Ry

     iteration #  2     ecut=    90.00 Ry     beta=0.70
     Davidson diagonalization with overlap
     ethr =  9.96E-05,  avg # of iterations =  3.1

     total cpu time spent up to now is       25.7 secs

     total energy              =    -426.01146056 Ry
     Harris-Foulkes estimate   =    -426.07158977 Ry
     estimated scf accuracy    <       0.21253726 Ry

     iteration #  3     ecut=    90.00 Ry     beta=0.70
     Davidson diagonalization with overlap
     ethr =  9.96E-05,  avg # of iterations =  3.0

     total cpu time spent up to now is       33.2 secs

     total energy              =    -426.03824188 Ry
     Harris-Foulkes estimate   =    -426.04029955 Ry
     estimated scf accuracy    <       0.00431802 Ry

     iteration #  4     ecut=    90.00 Ry     beta=0.70
     Davidson diagonalization with overlap
     ethr =  1.96E-05,  avg # of iterations =  2.2

     total cpu time spent up to now is       40.0 secs

     total energy              =    -426.03929646 Ry
     Harris-Foulkes estimate   =    -426.03998154 Ry
     estimated scf accuracy    <       0.00240684 Ry

     iteration #  5     ecut=    90.00 Ry     beta=0.70
     Davidson diagonalization with overlap
     ethr =  1.09E-05,  avg # of iterations =  1.1

     total cpu time spent up to now is       45.4 secs

     total energy              =    -426.03957884 Ry
     Harris-Foulkes estimate   =    -426.03958407 Ry
     estimated scf accuracy    <       0.00001787 Ry

     iteration #  6     ecut=    90.00 Ry     beta=0.70
     Davidson diagonalization with overlap
     ethr =  8.12E-08,  avg # of iterations =  3.1

     total cpu time spent up to now is       53.3 secs

     total energy              =    -426.03960419 Ry
     Harris-Foulkes estimate   =    -426.03960517 Ry
     estimated scf accuracy    <       0.00000475 Ry

     iteration #  7     ecut=    90.00 Ry     beta=0.70
     Davidson diagonalization with overlap
     ethr =  2.16E-08,  avg # of iterations =  1.0

     total cpu time spent up to now is       58.9 secs

     total energy              =    -426.03960439 Ry
     Harris-Foulkes estimate   =    -426.03960451 Ry
     estimated scf accuracy    <       0.00000063 Ry

     iteration #  8     ecut=    90.00 Ry     beta=0.70
     Davidson diagonalization with overlap
     ethr =  2.84E-09,  avg # of iterations =  2.1

     total cpu time spent up to now is       64.8 secs

     End of self-consistent calculation

          k = 0.0000 0.0000 0.0000 (  3839 PWs)   bands (ev):

     0.6701   3.9717   3.9717   3.9717   3.9943   3.9943   5.0267   5.0267
     5.0267   5.6498   5.6498  16.3823  16.3823  16.3823  17.3258

          k =-0.1111 0.1111-0.1111 (  3780 PWs)   bands (ev):

     0.8588   3.8938   3.8938   3.9757   4.1014   4.1014   4.9885   5.0214
     5.0214   5.6505   5.6505  14.0149  15.6326  15.6326  17.7971

          k =-0.2222 0.2222-0.2222 (  3795 PWs)   bands (ev):

     1.4054   3.8617   3.8617   3.9942   4.1897   4.1897   4.9008   5.0357
     5.0357   5.6442   5.6442  11.2411  14.7656  14.7656  17.5950

          k =-0.3333 0.3333-0.3333 (  3801 PWs)   bands (ev):

     2.2159   3.8896   3.8896   4.0272   4.1878   4.1878   4.8760   5.1133
     5.1133   5.6174   5.6174   8.7923  14.1394  14.1394  17.5318

          k =-0.4444 0.4444-0.4444 (  3807 PWs)   bands (ev):

     2.9473   3.9576   3.9576   4.0265   4.1165   4.1165   5.2101   5.2101
     5.2174   5.5764   5.5764   6.8780  13.8107  13.8107  17.6619

          k = 0.0000 0.2222 0.0000 (  3803 PWs)   bands (ev):

     0.9223   3.8128   3.9821   3.9821   4.0490   4.1651   4.8785   5.0721
     5.0721   5.6050   5.6873  14.6119  14.6119  15.2149  16.4307

          k =-0.1111 0.3333-0.1111 (  3816 PWs)   bands (ev):

     1.3521   3.7580   3.9621   3.9916   4.1393   4.2594   4.7529   5.0987
     5.1244   5.5629   5.7085  12.1992  13.7451  14.6097  16.7460

          k =-0.2222 0.4444-0.2222 (  3823 PWs)   bands (ev):

     2.0862   3.7607   3.9714   4.0059   4.1733   4.2975   4.7077   5.1391
     5.2009   5.5280   5.7088   9.6616  13.2052  13.7240  16.6099

          k =-0.3333 0.5556-0.3333 (  3819 PWs)   bands (ev):

     2.8888   3.8054   3.9854   4.0130   4.1620   4.2394   4.8605   5.2335
     5.3492   5.5390   5.6779   7.5217  12.9395  13.0657  16.4527

          k = 0.5556-0.3333 0.5556 (  3823 PWs)   bands (ev):

     3.1716   3.8582   3.9238   4.0391   4.1403   4.2162   5.0647   5.1451
     5.5796   5.6160   5.7500   6.5310  12.4347  13.3533  16.6425

          k = 0.4444-0.2222 0.4444 (  3819 PWs)   bands (ev):

     2.6368   3.8399   3.9254   4.0382   4.1139   4.2940   4.9194   5.0142
     5.3399   5.5258   5.6808   8.1918  12.3024  14.0307  17.1844

          k = 0.3333-0.1111 0.3333 (  3810 PWs)   bands (ev):

     1.8118   3.7952   3.9344   3.9884   4.1528   4.3025   4.8359   4.9411
     5.2289   5.5465   5.7036  10.4894  12.5610  14.9857  18.0616

          k = 0.2222-0.0000 0.2222 (  3809 PWs)   bands (ev):

     1.1680   3.8131   3.9197   3.9851   4.1225   4.2150   4.9001   4.9634
     5.1236   5.5997   5.6888  13.0237  13.2759  15.9074  17.8606

          k = 0.0000 0.4444 0.0000 (  3827 PWs)   bands (ev):

     1.6609   3.6775   4.0012   4.0012   4.2050   4.3405   4.5424   5.2147
     5.2147   5.4743   5.7466  12.7985  12.7985  13.0094  15.4187

          k =-0.1111 0.5556-0.1111 (  3831 PWs)   bands (ev):

     2.2888   3.6549   3.9962   4.0045   4.2903   4.3767   4.4438   5.2869
     5.3044   5.4248   5.7781  10.6453  12.1748  12.2436  15.5383

          k =-0.2222 0.6667-0.2222 (  3827 PWs)   bands (ev):

     3.0582   3.6796   3.9617   3.9908   4.3150   4.3392   4.5757   5.2041
     5.4945   5.5295   5.8191   8.4610  11.2343  11.9857  15.4801

          k = 0.6667-0.2222 0.6667 (  3828 PWs)   bands (ev):

     3.4836   3.7205   3.9331   3.9658   4.2296   4.3977   4.8383   5.0541
     5.6462   5.6843   6.3610   6.6817  10.4653  12.2782  15.6539

          k = 0.5556-0.1111 0.5556 (  3832 PWs)   bands (ev):

     3.2021   3.8313   3.8522   4.0416   4.1059   4.4572   4.9074   4.9879
     5.5736   5.6458   5.7136   7.9169  10.0817  13.0115  16.1373

          k = 0.4444 0.0000 0.4444 (  3823 PWs)   bands (ev):

     2.4961   3.7951   3.9165   4.0084   4.1191   4.4239   4.8686   4.8777
     5.4350   5.4493   5.7299   9.8715  10.2930  14.0483  16.9463

          k = 0.0000 0.6667 0.0000 (  3856 PWs)   bands (ev):

     2.7982   3.6127   4.0116   4.0116   4.1642   4.4396   4.4752   5.2686
     5.4362   5.4362   5.8600  10.3935  11.4213  11.4213  14.8163

          k =-0.1111 0.7778-0.1111 (  3844 PWs)   bands (ev):

     3.4573   3.6321   3.9170   4.0045   4.1638   4.5006   4.5471   5.1260
     5.5653   5.5778   6.0227   9.0068  10.2485  11.1063  14.9100

          k = 0.7778-0.1111 0.7778 (  3840 PWs)   bands (ev):

     3.6489   3.8215   3.8805   3.9681   4.2584   4.6128   4.6227   4.9528
     5.6658   5.7412   6.5623   7.6493   8.9619  11.3093  15.0327

          k = 0.6667-0.0000 0.6667 (  3833 PWs)   bands (ev):

     3.5796   3.8382   3.9069   3.9377   4.1806   4.6220   4.8385   4.8533
     5.7118   5.7472   6.3232   7.8198   8.4477  11.9933  15.4287

          k = 0.0000 0.8889 0.0000 (  3844 PWs)   bands (ev):

     3.6610   3.8455   3.9730   4.0129   4.0129   4.4670   4.7195   5.0076
     5.6277   5.6277   6.3776   7.9789  10.6429  10.6429  14.6038

          k = 0.8889 0.0000 0.8889 (  3835 PWs)   bands (ev):

     3.6974   3.7637   4.0009   4.0107   4.3006   4.4060   4.8263   4.8592
     5.6665   5.6990   7.0832   7.0892   9.6900  10.7159  14.7206

          k =-0.2222 0.4444 0.0000 (  3814 PWs)   bands (ev):

     1.8816   3.7192   3.9785   3.9939   4.1829   4.3531   4.6249   5.0991
     5.2761   5.4886   5.7366  11.3363  11.7044  14.0180  16.9757

          k =-0.3333 0.5556-0.1111 (  3826 PWs)   bands (ev):

     2.6475   3.7358   3.9285   4.0386   4.1869   4.3923   4.6455   5.1355
     5.3961   5.4816   5.7472   9.1173  11.1884  13.0168  16.9578

          k = 0.5556-0.3333 0.7778 (  3825 PWs)   bands (ev):

     3.2943   3.7644   3.8731   4.0567   4.2068   4.3364   4.8504   5.1063
     5.5941   5.6617   5.8638   7.1518  11.1361  12.2804  16.8275

          k =-0.2222 0.6667 0.0000 (  3825 PWs)   bands (ev):

     2.9456   3.6500   3.9270   4.0323   4.3335   4.3665   4.4815   5.2110
     5.4599   5.4964   5.8431   9.8112  10.5215  11.5107  16.2158

          k = 0.6667-0.2222 0.8889 (  3833 PWs)   bands (ev):

     3.5452   3.6768   3.8509   4.0391   4.3423   4.4418   4.6012   5.0567
     5.6316   5.6808   6.0778   8.1284   9.8479  10.8912  16.3499

          k = 0.5556-0.1111 0.7778 (  3820 PWs)   bands (ev):

     3.6254   3.7514   3.8380   4.0400   4.2657   4.5197   4.7824   4.9243
     5.7008   5.7372   6.5208   7.2128   9.3072  11.1523  16.6444

          k = 0.4444 0.0000 0.6667 (  3832 PWs)   bands (ev):

     3.2904   3.7586   3.8396   4.0670   4.1920   4.5296   4.6587   5.0649
     5.5989   5.6289   5.8120   8.7125   9.2716  11.9633  17.1799

          k = 0.7778-0.1111 1.0000 (  3838 PWs)   bands (ev):

     3.6688   3.7731   3.8991   4.0301   4.2640   4.4705   4.6739   4.9682
     5.6757   5.6765   6.4457   8.0280   9.8881  10.0709  15.8841

          k = 0.6667-0.0000 0.8889 (  3830 PWs)   bands (ev):

     3.6651   3.7590   3.9678   4.0147   4.3319   4.5880   4.7300   4.8150
     5.7143   5.7663   7.1442   7.3515   8.6325  10.3285  16.1538

          k = 0.5556-0.1111 1.0000 (  3830 PWs)   bands (ev):

     3.6899   3.7019   3.9197   4.0444   4.4331   4.5441   4.6440   4.8612
     5.7404   5.7552   6.7549   7.8479   8.8512   9.7301  18.0929

     the Fermi energy is     6.7553 ev

!    total energy              =    -426.03960444 Ry
     Harris-Foulkes estimate   =    -426.03960447 Ry
     estimated scf accuracy    <       0.00000003 Ry

     total all-electron energy =     -6619.799141 Ry

     The total energy is the sum of the following terms:

     one-electron contribution =    -116.82832833 Ry
     hartree contribution      =      57.86836333 Ry
     xc contribution           =     -73.47133842 Ry
     ewald contribution        =    -127.80442418 Ry
     one-center paw contrib.   =    -165.80381898 Ry
     smearing contrib. (-TS)   =      -0.00005786 Ry

     convergence has been achieved in   8 iterations

     Writing output data file Cu.save

     init_run     :      3.59s CPU      3.70s WALL (       1 calls)
     electrons    :     59.05s CPU     60.26s WALL (       1 calls)

     Called by init_run:
     wfcinit      :      2.18s CPU      2.24s WALL (       1 calls)
     potinit      :      0.43s CPU      0.43s WALL (       1 calls)

     Called by electrons:
     c_bands      :     45.71s CPU     46.58s WALL (       9 calls)
     sum_band     :      8.69s CPU      8.88s WALL (       9 calls)
     v_of_rho     :      0.43s CPU      0.43s WALL (       9 calls)
     newd         :      0.88s CPU      0.89s WALL (       9 calls)
     mix_rho      :      0.51s CPU      0.53s WALL (       9 calls)

     Called by c_bands:
     init_us_2    :      0.96s CPU      1.01s WALL (     665 calls)
     cegterg      :     43.28s CPU     44.01s WALL (     315 calls)

     Called by *egterg:
     h_psi        :     38.95s CPU     39.61s WALL (    1143 calls)
     s_psi        :      1.05s CPU      1.05s WALL (    1143 calls)
     g_psi        :      0.30s CPU      0.30s WALL (     793 calls)
     cdiaghg      :      1.28s CPU      1.28s WALL (    1073 calls)

     Called by h_psi:
     add_vuspsi   :      1.07s CPU      1.07s WALL (    1143 calls)

     General routines
     calbec       :      1.42s CPU      1.43s WALL (    1458 calls)
     fft          :      0.21s CPU      0.22s WALL (     119 calls)
     fftw         :     38.58s CPU     39.40s WALL (   30979 calls)
     davcio       :      0.17s CPU      0.18s WALL (     980 calls)

     Parallel routines
     fft_scatter  :      9.54s CPU      9.67s WALL (   31098 calls)

     PAW routines
     PAW_pot      :      3.25s CPU      3.34s WALL (       9 calls)
     PAW_ddot     :      0.47s CPU      0.49s WALL (      86 calls)
     PAW_symme    :      0.01s CPU      0.01s WALL (      18 calls)

     PWSCF        :  1m 3.72s CPU     1m 5.09s WALL


   This run was terminated on:  20:49:35  11Jul2015            

=------------------------------------------------------------------------------=
   JOB DONE.
=------------------------------------------------------------------------------=
