
     Program PWSCF v.5.0.2 (svn rev. 9656) starts on 26Jul2015 at  1:36:31 

     This program is part of the open-source Quantum ESPRESSO suite
     for quantum simulation of materials; please cite
         "P. Giannozzi et al., J. Phys.:Condens. Matter 21 395502 (2009);
          URL http://www.quantum-espresso.org", 
     in publications or presentations arising from this work. More details at
     http://www.quantum-espresso.org/quote.php

     Parallel version (MPI), running on     4 processors
     R & G space division:  proc/nbgrp/npool/nimage =       4

     Current dimensions of program PWSCF are:
     Max number of different atomic species (ntypx) = 10
     Max number of k-points (npk) =  40000
     Max angular momentum in pseudopotentials (lmaxx) =  3
     Waiting for input...
     Reading input from standard input
               file C.pbe-rrkjus.UPF: wavefunction(s)  2S 2P renormalized

     Subspace diagonalization in iterative solution of the eigenvalue problem:
     a serial algorithm will be used


     Parallelization info
     --------------------
     sticks:   dense  smooth     PW     G-vecs:    dense   smooth      PW
     Min         211     108     31                60323    21378    3646
     Max         212     109     32                60388    21428    3669
     Sum         847     433    127               241475    85597   14621



     bravais-lattice index     =            0
     lattice parameter (alat)  =       4.7000  a.u.
     unit-cell volume          =    1078.9603 (a.u.)^3
     number of atoms/cell      =            2
     number of atomic types    =            1
     number of electrons       =         8.00
     number of Kohn-Sham states=            8
     kinetic-energy cutoff     =      70.0000  Ry
     charge density cutoff     =     560.0000  Ry
     convergence threshold     =      1.0E-08
     mixing beta               =       0.7000
     number of iterations used =            8  plain     mixing
     Exchange-correlation      =  SLA  PW   PBE  PBE ( 1 4 3 4 0)
     EXX-fraction              =        0.00

     celldm(1)=   4.700000  celldm(2)=   0.000000  celldm(3)=   0.000000
     celldm(4)=   0.000000  celldm(5)=   0.000000  celldm(6)=   0.000000

     crystal axes: (cart. coord. in units of alat)
               a(1) = (   1.000000   0.000000   0.000000 )  
               a(2) = (   0.500000   0.866025   0.000000 )  
               a(3) = (   0.000000   0.000000  12.000000 )  

     reciprocal axes: (cart. coord. in units 2 pi/alat)
               b(1) = (  1.000000 -0.577350  0.000000 )  
               b(2) = (  0.000000  1.154701  0.000000 )  
               b(3) = (  0.000000  0.000000  0.083333 )  


     PseudoPot. # 1 for C  read from file:
     ./C.pbe-rrkjus.UPF
     MD5 check sum: 00fb224312de0c5b6853bd333518df6f
     Pseudo is Ultrasoft, Zval =  4.0
     Generated by new atomic code, or converted to UPF format
     Using radial grid of  627 points,  4 beta functions with: 
                l(1) =   0
                l(2) =   0
                l(3) =   1
                l(4) =   1
     Q(r) pseudized with 0 coefficients 


     atomic species   valence    mass     pseudopotential
        C              4.00    12.00000     C ( 1.00)

     24 Sym. Ops., with inversion, found (12 have fractional translation)



   Cartesian axes

     site n.     atom                  positions (alat units)
         1           C   tau(   1) = (   0.0000000   0.0000000   0.0000000  )
         2           C   tau(   2) = (   1.0000000   0.5773503   0.0000000  )

     number of k points=    14  gaussian smearing, width (Ry)=  0.0010
                       cart. coord. in units 2pi/alat
        k(    1) = (   0.0000000   0.0000000   0.0000000), wk =   0.0200000
        k(    2) = (   0.0000000   0.1154701   0.0000000), wk =   0.1200000
        k(    3) = (   0.0000000   0.2309401   0.0000000), wk =   0.1200000
        k(    4) = (   0.0000000   0.3464102   0.0000000), wk =   0.1200000
        k(    5) = (   0.0000000   0.4618802   0.0000000), wk =   0.1200000
        k(    6) = (   0.0000000  -0.5773503   0.0000000), wk =   0.0600000
        k(    7) = (   0.1000000   0.1732051   0.0000000), wk =   0.1200000
        k(    8) = (   0.1000000   0.2886751   0.0000000), wk =   0.2400000
        k(    9) = (   0.1000000   0.4041452   0.0000000), wk =   0.2400000
        k(   10) = (   0.1000000  -0.6350853   0.0000000), wk =   0.2400000
        k(   11) = (   0.2000000   0.3464102   0.0000000), wk =   0.1200000
        k(   12) = (   0.2000000  -0.6928203   0.0000000), wk =   0.2400000
        k(   13) = (   0.2000000  -0.5773503   0.0000000), wk =   0.1200000
        k(   14) = (   0.3000000  -0.6350853   0.0000000), wk =   0.1200000

     Dense  grid:   241475 G-vectors     FFT dimensions: (  36,  36, 432)

     Smooth grid:    85597 G-vectors     FFT dimensions: (  25,  25, 320)

     Largest allocated arrays     est. size (Mb)     dimensions
        Kohn-Sham Wavefunctions         0.33 Mb     (   2706,    8)
        NL pseudopotentials             0.66 Mb     (   2706,   16)
        Each V/rho on FFT grid          2.14 Mb     ( 139968)
        Each G-vector array             0.46 Mb     (  60388)
        G-vector shells                 0.14 Mb     (  17883)
     Largest temporary arrays     est. size (Mb)     dimensions
        Auxiliary wavefunctions         1.32 Mb     (   2706,   32)
        Each subspace H/S matrix        0.02 Mb     (  32,  32)
        Each <psi_i|beta_j> matrix      0.00 Mb     (     16,    8)
        Arrays for rho mixing          17.09 Mb     ( 139968,   8)

     Initial potential from superposition of free atoms

     starting charge    7.99989, renormalised to    8.00000

     negative rho (up, down):  0.248E-04 0.000E+00
     Starting wfc are    8 randomized atomic wfcs

     total cpu time spent up to now is        4.3 secs

     per-process dynamical memory:    37.2 Mb

     Self-consistent Calculation

     iteration #  1     ecut=    70.00 Ry     beta=0.70
     Davidson diagonalization with overlap
     ethr =  1.00E-02,  avg # of iterations =  5.1

     negative rho (up, down):  0.175E-04 0.000E+00

     total cpu time spent up to now is       13.3 secs

     total energy              =     -22.76193671 Ry
     Harris-Foulkes estimate   =     -22.87459514 Ry
     estimated scf accuracy    <       0.18900892 Ry

     iteration #  2     ecut=    70.00 Ry     beta=0.70
     Davidson diagonalization with overlap
     ethr =  2.36E-03,  avg # of iterations =  5.2

     negative rho (up, down):  0.168E-04 0.000E+00

     total cpu time spent up to now is       20.8 secs

     total energy              =     -22.79014641 Ry
     Harris-Foulkes estimate   =     -22.79027720 Ry
     estimated scf accuracy    <       0.00242792 Ry

     iteration #  3     ecut=    70.00 Ry     beta=0.70
     Davidson diagonalization with overlap
     ethr =  3.03E-05,  avg # of iterations = 10.4

     negative rho (up, down):  0.184E-04 0.000E+00

     total cpu time spent up to now is       31.2 secs

     total energy              =     -22.79045805 Ry
     Harris-Foulkes estimate   =     -22.79043014 Ry
     estimated scf accuracy    <       0.00013815 Ry

     iteration #  4     ecut=    70.00 Ry     beta=0.70
     Davidson diagonalization with overlap
     ethr =  1.73E-06,  avg # of iterations =  4.9

     negative rho (up, down):  0.185E-04 0.000E+00

     total cpu time spent up to now is       38.6 secs

     total energy              =     -22.79046338 Ry
     Harris-Foulkes estimate   =     -22.79046264 Ry
     estimated scf accuracy    <       0.00000080 Ry

     iteration #  5     ecut=    70.00 Ry     beta=0.70
     Davidson diagonalization with overlap
     ethr =  1.00E-08,  avg # of iterations =  2.6

     negative rho (up, down):  0.184E-04 0.000E+00

     total cpu time spent up to now is       45.5 secs

     total energy              =     -22.79046371 Ry
     Harris-Foulkes estimate   =     -22.79046370 Ry
     estimated scf accuracy    <       0.00000002 Ry

     iteration #  6     ecut=    70.00 Ry     beta=0.70
     Davidson diagonalization with overlap
     ethr =  2.97E-10,  avg # of iterations =  2.0

     negative rho (up, down):  0.184E-04 0.000E+00

     total cpu time spent up to now is       51.8 secs

     End of self-consistent calculation

          k = 0.0000 0.0000 0.0000 ( 10735 PWs)   bands (ev):

   -22.3572 -10.5098  -6.1555  -6.1554   0.2796   1.0119   1.1790   1.5216

          k = 0.0000 0.1155 0.0000 ( 10699 PWs)   bands (ev):

   -22.1251 -10.2341  -7.0578  -6.6143   0.5949   1.3321   1.5028   1.8439

          k = 0.0000 0.2309 0.0000 ( 10673 PWs)   bands (ev):

   -21.4329  -9.4184  -9.1999  -7.6010   1.5402   2.2899   2.4747   2.8093

          k = 0.0000 0.3464 0.0000 ( 10671 PWs)   bands (ev):

   -20.2935 -11.7676  -8.5636  -8.1088   2.6179   3.1077   3.9089   4.0942

          k = 0.0000 0.4619 0.0000 ( 10685 PWs)   bands (ev):

   -18.7429 -14.2938  -9.2154  -6.4680   0.0331   4.1812   5.3156   6.1158

          k = 0.0000-0.5774 0.0000 ( 10692 PWs)   bands (ev):

   -17.2396 -16.1389  -9.4427  -5.3788  -1.4045   4.0663   7.9899   8.1450

          k = 0.1000 0.1732 0.0000 ( 10653 PWs)   bands (ev):

   -21.6630  -9.6880  -8.3877  -7.5329   1.2257   1.9716   2.1508   2.4880

          k = 0.1000 0.2887 0.0000 ( 10675 PWs)   bands (ev):

   -20.7471 -10.5111  -8.7451  -8.6211   2.4847   3.2344   3.4467   3.6862

          k = 0.1000 0.4041 0.0000 ( 10672 PWs)   bands (ev):

   -19.3996 -12.9725  -9.6422  -7.1143   1.1568   4.3570   5.1524   5.3334

          k = 0.1000-0.6351 0.0000 ( 10684 PWs)   bands (ev):

   -17.7047 -15.2988 -10.1087  -5.5173  -1.0408   5.0913   6.8464   7.6184

          k = 0.2000 0.3464 0.0000 ( 10672 PWs)   bands (ev):

   -19.6221 -11.9701 -10.4559  -7.3401   1.7040   4.0521   4.8152   5.0666

          k = 0.2000-0.6928 0.0000 ( 10652 PWs)   bands (ev):

   -18.1010 -13.9208 -11.5103  -5.7111  -0.4324   6.2135   6.8899   7.3330

          k = 0.2000-0.5774 0.0000 ( 10668 PWs)   bands (ev):

   -16.6397 -15.6093 -11.8127  -4.5388  -1.7929   7.4396   8.1987   8.7515

          k = 0.3000-0.6351 0.0000 ( 10632 PWs)   bands (ev):

   -16.5094 -14.8549 -13.0848  -4.0709  -2.0841   7.6271   8.5300   9.6295

     the Fermi energy is    -2.3587 ev

!    total energy              =     -22.79046371 Ry
     Harris-Foulkes estimate   =     -22.79046371 Ry
     estimated scf accuracy    <          4.6E-10 Ry

     The total energy is the sum of the following terms:

     one-electron contribution =    -350.38390018 Ry
     hartree contribution      =     176.17131069 Ry
     xc contribution           =      -6.97887904 Ry
     ewald contribution        =     158.40100482 Ry
     smearing contrib. (-TS)   =      -0.00000000 Ry

     convergence has been achieved in   6 iterations

     Writing output data file graphene.save

     init_run     :      4.07s CPU      4.26s WALL (       1 calls)
     electrons    :     45.34s CPU     47.49s WALL (       1 calls)

     Called by init_run:
     wfcinit      :      1.54s CPU      1.62s WALL (       1 calls)
     potinit      :      1.10s CPU      1.13s WALL (       1 calls)

     Called by electrons:
     c_bands      :     29.35s CPU     30.67s WALL (       6 calls)
     sum_band     :      8.94s CPU      9.41s WALL (       6 calls)
     v_of_rho     :      2.88s CPU      3.08s WALL (       7 calls)
     newd         :      3.63s CPU      3.75s WALL (       7 calls)
     mix_rho      :      0.46s CPU      0.46s WALL (       6 calls)

     Called by c_bands:
     init_us_2    :      0.42s CPU      0.52s WALL (     182 calls)
     cegterg      :     28.80s CPU     29.95s WALL (      84 calls)

     Called by *egterg:
     h_psi        :     26.52s CPU     27.65s WALL (     521 calls)
     s_psi        :      0.49s CPU      0.48s WALL (     521 calls)
     g_psi        :      0.12s CPU      0.13s WALL (     423 calls)
     cdiaghg      :      0.22s CPU      0.22s WALL (     507 calls)

     Called by h_psi:
     add_vuspsi   :      0.45s CPU      0.46s WALL (     521 calls)

     General routines
     calbec       :      0.81s CPU      0.83s WALL (     605 calls)
     fft          :      2.81s CPU      2.99s WALL (     107 calls)
     ffts         :      0.10s CPU      0.11s WALL (      13 calls)
     fftw         :     18.60s CPU     19.65s WALL (    5114 calls)
     interpolate  :      0.58s CPU      0.58s WALL (      13 calls)
     davcio       :      0.15s CPU      0.20s WALL (     266 calls)

     Parallel routines
     fft_scatter  :     13.25s CPU     14.26s WALL (    5234 calls)

     PWSCF        :    49.69s CPU        52.07s WALL


   This run was terminated on:   1:37:23  26Jul2015            

=------------------------------------------------------------------------------=
   JOB DONE.
=------------------------------------------------------------------------------=
