
     Program PWSCF v.5.0.2 (svn rev. 9656) starts on 26Jul2015 at  1:29:24 

     This program is part of the open-source Quantum ESPRESSO suite
     for quantum simulation of materials; please cite
         "P. Giannozzi et al., J. Phys.:Condens. Matter 21 395502 (2009);
          URL http://www.quantum-espresso.org", 
     in publications or presentations arising from this work. More details at
     http://www.quantum-espresso.org/quote.php

     Parallel version (MPI), running on     4 processors
     R & G space division:  proc/nbgrp/npool/nimage =       4

     Current dimensions of program PWSCF are:
     Max number of different atomic species (ntypx) = 10
     Max number of k-points (npk) =  40000
     Max angular momentum in pseudopotentials (lmaxx) =  3
     Waiting for input...
     Reading input from standard input
               file C.pbe-rrkjus.UPF: wavefunction(s)  2S 2P renormalized

     Subspace diagonalization in iterative solution of the eigenvalue problem:
     a serial algorithm will be used


     Parallelization info
     --------------------
     sticks:   dense  smooth     PW     G-vecs:    dense   smooth      PW
     Min         205     105     30                56987    20175    3462
     Max         206     106     31                57016    20224    3517
     Sum         823     421    121               228015    80755   13917



     bravais-lattice index     =            0
     lattice parameter (alat)  =       4.6100  a.u.
     unit-cell volume          =    1018.1568 (a.u.)^3
     number of atoms/cell      =            2
     number of atomic types    =            1
     number of electrons       =         8.00
     number of Kohn-Sham states=            8
     kinetic-energy cutoff     =      70.0000  Ry
     charge density cutoff     =     560.0000  Ry
     convergence threshold     =      1.0E-08
     mixing beta               =       0.7000
     number of iterations used =            8  plain     mixing
     Exchange-correlation      =  SLA  PW   PBE  PBE ( 1 4 3 4 0)
     EXX-fraction              =        0.00

     celldm(1)=   4.610000  celldm(2)=   0.000000  celldm(3)=   0.000000
     celldm(4)=   0.000000  celldm(5)=   0.000000  celldm(6)=   0.000000

     crystal axes: (cart. coord. in units of alat)
               a(1) = (   1.000000   0.000000   0.000000 )  
               a(2) = (   0.500000   0.866025   0.000000 )  
               a(3) = (   0.000000   0.000000  12.000000 )  

     reciprocal axes: (cart. coord. in units 2 pi/alat)
               b(1) = (  1.000000 -0.577350  0.000000 )  
               b(2) = (  0.000000  1.154701  0.000000 )  
               b(3) = (  0.000000  0.000000  0.083333 )  


     PseudoPot. # 1 for C  read from file:
     ./C.pbe-rrkjus.UPF
     MD5 check sum: 00fb224312de0c5b6853bd333518df6f
     Pseudo is Ultrasoft, Zval =  4.0
     Generated by new atomic code, or converted to UPF format
     Using radial grid of  627 points,  4 beta functions with: 
                l(1) =   0
                l(2) =   0
                l(3) =   1
                l(4) =   1
     Q(r) pseudized with 0 coefficients 


     atomic species   valence    mass     pseudopotential
        C              4.00    12.00000     C ( 1.00)

     24 Sym. Ops., with inversion, found (12 have fractional translation)



   Cartesian axes

     site n.     atom                  positions (alat units)
         1           C   tau(   1) = (   0.0000000   0.0000000   0.0000000  )
         2           C   tau(   2) = (   1.0000000   0.5773503   0.0000000  )

     number of k points=    14  gaussian smearing, width (Ry)=  0.0010
                       cart. coord. in units 2pi/alat
        k(    1) = (   0.0000000   0.0000000   0.0000000), wk =   0.0200000
        k(    2) = (   0.0000000   0.1154701   0.0000000), wk =   0.1200000
        k(    3) = (   0.0000000   0.2309401   0.0000000), wk =   0.1200000
        k(    4) = (   0.0000000   0.3464102   0.0000000), wk =   0.1200000
        k(    5) = (   0.0000000   0.4618802   0.0000000), wk =   0.1200000
        k(    6) = (   0.0000000  -0.5773503   0.0000000), wk =   0.0600000
        k(    7) = (   0.1000000   0.1732051   0.0000000), wk =   0.1200000
        k(    8) = (   0.1000000   0.2886751   0.0000000), wk =   0.2400000
        k(    9) = (   0.1000000   0.4041452   0.0000000), wk =   0.2400000
        k(   10) = (   0.1000000  -0.6350853   0.0000000), wk =   0.2400000
        k(   11) = (   0.2000000   0.3464102   0.0000000), wk =   0.1200000
        k(   12) = (   0.2000000  -0.6928203   0.0000000), wk =   0.2400000
        k(   13) = (   0.2000000  -0.5773503   0.0000000), wk =   0.1200000
        k(   14) = (   0.3000000  -0.6350853   0.0000000), wk =   0.1200000

     Dense  grid:   228015 G-vectors     FFT dimensions: (  36,  36, 432)

     Smooth grid:    80755 G-vectors     FFT dimensions: (  25,  25, 300)

     Largest allocated arrays     est. size (Mb)     dimensions
        Kohn-Sham Wavefunctions         0.31 Mb     (   2551,    8)
        NL pseudopotentials             0.62 Mb     (   2551,   16)
        Each V/rho on FFT grid          2.14 Mb     ( 139968)
        Each G-vector array             0.43 Mb     (  57004)
        G-vector shells                 0.13 Mb     (  17040)
     Largest temporary arrays     est. size (Mb)     dimensions
        Auxiliary wavefunctions         1.25 Mb     (   2551,   32)
        Each subspace H/S matrix        0.02 Mb     (  32,  32)
        Each <psi_i|beta_j> matrix      0.00 Mb     (     16,    8)
        Arrays for rho mixing          17.09 Mb     ( 139968,   8)

     Initial potential from superposition of free atoms

     starting charge    7.99989, renormalised to    8.00000

     negative rho (up, down):  0.244E-04 0.000E+00
     Starting wfc are    8 randomized atomic wfcs

     total cpu time spent up to now is        3.0 secs

     per-process dynamical memory:    36.8 Mb

     Self-consistent Calculation

     iteration #  1     ecut=    70.00 Ry     beta=0.70
     Davidson diagonalization with overlap
     ethr =  1.00E-02,  avg # of iterations =  5.5

     negative rho (up, down):  0.173E-04 0.000E+00

     total cpu time spent up to now is        8.2 secs

     total energy              =     -22.75651945 Ry
     Harris-Foulkes estimate   =     -22.89112234 Ry
     estimated scf accuracy    <       0.22160810 Ry

     iteration #  2     ecut=    70.00 Ry     beta=0.70
     Davidson diagonalization with overlap
     ethr =  2.77E-03,  avg # of iterations =  4.5

     negative rho (up, down):  0.168E-04 0.000E+00

     total cpu time spent up to now is       12.4 secs

     total energy              =     -22.79019802 Ry
     Harris-Foulkes estimate   =     -22.79034273 Ry
     estimated scf accuracy    <       0.00256846 Ry

     iteration #  3     ecut=    70.00 Ry     beta=0.70
     Davidson diagonalization with overlap
     ethr =  3.21E-05,  avg # of iterations = 10.9

     negative rho (up, down):  0.185E-04 0.000E+00

     total cpu time spent up to now is       18.8 secs

     total energy              =     -22.79057730 Ry
     Harris-Foulkes estimate   =     -22.79054490 Ry
     estimated scf accuracy    <       0.00014029 Ry

     iteration #  4     ecut=    70.00 Ry     beta=0.70
     Davidson diagonalization with overlap
     ethr =  1.75E-06,  avg # of iterations =  3.7

     negative rho (up, down):  0.187E-04 0.000E+00

     total cpu time spent up to now is       22.9 secs

     total energy              =     -22.79058325 Ry
     Harris-Foulkes estimate   =     -22.79058239 Ry
     estimated scf accuracy    <       0.00000102 Ry

     iteration #  5     ecut=    70.00 Ry     beta=0.70
     Davidson diagonalization with overlap
     ethr =  1.27E-08,  avg # of iterations =  2.5

     negative rho (up, down):  0.186E-04 0.000E+00

     total cpu time spent up to now is       27.0 secs

     total energy              =     -22.79058363 Ry
     Harris-Foulkes estimate   =     -22.79058362 Ry
     estimated scf accuracy    <       0.00000002 Ry

     iteration #  6     ecut=    70.00 Ry     beta=0.70
     Davidson diagonalization with overlap
     ethr =  3.06E-10,  avg # of iterations =  2.0

     negative rho (up, down):  0.186E-04 0.000E+00

     total cpu time spent up to now is       30.7 secs

     End of self-consistent calculation

          k = 0.0000 0.0000 0.0000 ( 10071 PWs)   bands (ev):

   -22.6006 -10.6780  -5.9156  -5.9156   0.3233   1.0663   1.2342   1.5943

          k = 0.0000 0.1155 0.0000 ( 10025 PWs)   bands (ev):

   -22.3605 -10.3890  -6.8380  -6.4030   0.6507   1.3994   1.5710   1.9294

          k = 0.0000 0.2309 0.0000 ( 10021 PWs)   bands (ev):

   -21.6440  -9.5334  -9.0383  -7.4467   1.6328   2.3961   2.5812   2.9332

          k = 0.0000 0.3464 0.0000 ( 10063 PWs)   bands (ev):

   -20.4638 -11.6868  -8.4608  -8.1578   3.1195   3.2629   4.0913   4.2645

          k = 0.0000 0.4619 0.0000 ( 10084 PWs)   bands (ev):

   -18.8513 -14.3044  -9.1461  -6.4280   0.3784   4.9477   5.5765   6.3810

          k = 0.0000-0.5774 0.0000 ( 10104 PWs)   bands (ev):

   -17.2193 -16.2886  -9.3848  -5.2702  -1.1554   4.8593   8.3493   8.5003

          k = 0.1000 0.1732 0.0000 ( 10032 PWs)   bands (ev):

   -21.8823  -9.8163  -8.1944  -7.3762   1.3061   2.0647   2.2444   2.5990

          k = 0.1000 0.2887 0.0000 ( 10030 PWs)   bands (ev):

   -20.9339 -10.3786  -8.6963  -8.6483   2.6146   3.3844   3.5914   3.9303

          k = 0.1000 0.4041 0.0000 ( 10081 PWs)   bands (ev):

   -19.5362 -12.9267  -9.5831  -7.1112   1.5854   4.5637   5.3778   5.6112

          k = 0.1000-0.6351 0.0000 ( 10080 PWs)   bands (ev):

   -17.7591 -15.3564 -10.0688  -5.4219  -0.7543   5.9041   7.1564   7.9536

          k = 0.2000 0.3464 0.0000 ( 10074 PWs)   bands (ev):

   -19.7678 -11.8514 -10.4545  -7.3498   2.1842   4.2445   5.0257   5.2751

          k = 0.2000-0.6928 0.0000 ( 10110 PWs)   bands (ev):

   -18.1852 -13.8827 -11.5391  -5.6327  -0.0791   6.4953   7.1953   7.6315

          k = 0.2000-0.5774 0.0000 ( 10134 PWs)   bands (ev):

   -16.6091 -15.7018 -11.8433  -4.3894  -1.5263   8.3162   8.5780   9.1646

          k = 0.3000-0.6351 0.0000 ( 10130 PWs)   bands (ev):

   -16.5154 -14.7922 -13.2426  -3.9023  -1.8113   7.9512   8.9320  10.4630

     the Fermi energy is    -1.9291 ev

!    total energy              =     -22.79058364 Ry
     Harris-Foulkes estimate   =     -22.79058364 Ry
     estimated scf accuracy    <          4.6E-10 Ry

     The total energy is the sum of the following terms:

     one-electron contribution =    -356.51269170 Ry
     hartree contribution      =     179.29074917 Ry
     xc contribution           =      -7.06207335 Ry
     ewald contribution        =     161.49343224 Ry
     smearing contrib. (-TS)   =      -0.00000000 Ry

     convergence has been achieved in   6 iterations

     Writing output data file graphene.save

     init_run     :      2.88s CPU      2.98s WALL (       1 calls)
     electrons    :     26.40s CPU     27.64s WALL (       1 calls)

     Called by init_run:
     wfcinit      :      0.90s CPU      0.94s WALL (       1 calls)
     potinit      :      0.88s CPU      0.90s WALL (       1 calls)

     Called by electrons:
     c_bands      :     17.02s CPU     17.75s WALL (       6 calls)
     sum_band     :      5.16s CPU      5.40s WALL (       6 calls)
     v_of_rho     :      1.98s CPU      2.12s WALL (       7 calls)
     newd         :      2.04s CPU      2.09s WALL (       7 calls)
     mix_rho      :      0.28s CPU      0.29s WALL (       6 calls)

     Called by c_bands:
     init_us_2    :      0.30s CPU      0.32s WALL (     182 calls)
     cegterg      :     16.62s CPU     17.29s WALL (      84 calls)

     Called by *egterg:
     h_psi        :     15.30s CPU     15.90s WALL (     506 calls)
     s_psi        :      0.24s CPU      0.24s WALL (     506 calls)
     g_psi        :      0.11s CPU      0.12s WALL (     408 calls)
     cdiaghg      :      0.20s CPU      0.20s WALL (     492 calls)

     Called by h_psi:
     add_vuspsi   :      0.24s CPU      0.25s WALL (     506 calls)

     General routines
     calbec       :      0.43s CPU      0.43s WALL (     590 calls)
     fft          :      1.87s CPU      2.01s WALL (     107 calls)
     ffts         :      0.05s CPU      0.06s WALL (      13 calls)
     fftw         :     11.20s CPU     11.71s WALL (    5102 calls)
     interpolate  :      0.35s CPU      0.37s WALL (      13 calls)
     davcio       :      0.08s CPU      0.09s WALL (     266 calls)

     Parallel routines
     fft_scatter  :      7.19s CPU      7.67s WALL (    5222 calls)

     PWSCF        :    29.51s CPU        30.88s WALL


   This run was terminated on:   1:29:55  26Jul2015            

=------------------------------------------------------------------------------=
   JOB DONE.
=------------------------------------------------------------------------------=
