
     Program PWSCF v.5.0.2 (svn rev. 9656) starts on 26Jul2015 at  3:53: 8 

     This program is part of the open-source Quantum ESPRESSO suite
     for quantum simulation of materials; please cite
         "P. Giannozzi et al., J. Phys.:Condens. Matter 21 395502 (2009);
          URL http://www.quantum-espresso.org", 
     in publications or presentations arising from this work. More details at
     http://www.quantum-espresso.org/quote.php

     Parallel version (MPI), running on     4 processors
     R & G space division:  proc/nbgrp/npool/nimage =       4

     Current dimensions of program PWSCF are:
     Max number of different atomic species (ntypx) = 10
     Max number of k-points (npk) =  40000
     Max angular momentum in pseudopotentials (lmaxx) =  3
     Waiting for input...
     Reading input from standard input
               file C.pbe-rrkjus.UPF: wavefunction(s)  2S 2P renormalized

     Subspace diagonalization in iterative solution of the eigenvalue problem:
     a serial algorithm will be used


     Parallelization info
     --------------------
     sticks:   dense  smooth     PW     G-vecs:    dense   smooth      PW
     Min         211     145     45                58589    34707    5691
     Max         212     146     48                58614    34766    5694
     Sum         847     583    187               234415   138983   22773



     bravais-lattice index     =            0
     lattice parameter (alat)  =       4.6500  a.u.
     unit-cell volume          =    1044.8904 (a.u.)^3
     number of atoms/cell      =            2
     number of atomic types    =            1
     number of electrons       =         8.00
     number of Kohn-Sham states=            8
     kinetic-energy cutoff     =      99.0000  Ry
     charge density cutoff     =     560.0000  Ry
     convergence threshold     =      1.0E-08
     mixing beta               =       0.7000
     number of iterations used =            8  plain     mixing
     Exchange-correlation      =  SLA  PW   PBE  PBE ( 1 4 3 4 0)
     EXX-fraction              =        0.00

     celldm(1)=   4.650000  celldm(2)=   0.000000  celldm(3)=   0.000000
     celldm(4)=   0.000000  celldm(5)=   0.000000  celldm(6)=   0.000000

     crystal axes: (cart. coord. in units of alat)
               a(1) = (   1.000000   0.000000   0.000000 )  
               a(2) = (   0.500000   0.866025   0.000000 )  
               a(3) = (   0.000000   0.000000  12.000000 )  

     reciprocal axes: (cart. coord. in units 2 pi/alat)
               b(1) = (  1.000000 -0.577350  0.000000 )  
               b(2) = (  0.000000  1.154701  0.000000 )  
               b(3) = (  0.000000  0.000000  0.083333 )  


     PseudoPot. # 1 for C  read from file:
     ./C.pbe-rrkjus.UPF
     MD5 check sum: 00fb224312de0c5b6853bd333518df6f
     Pseudo is Ultrasoft, Zval =  4.0
     Generated by new atomic code, or converted to UPF format
     Using radial grid of  627 points,  4 beta functions with: 
                l(1) =   0
                l(2) =   0
                l(3) =   1
                l(4) =   1
     Q(r) pseudized with 0 coefficients 


     atomic species   valence    mass     pseudopotential
        C              4.00    12.00000     C ( 1.00)

     24 Sym. Ops., with inversion, found (12 have fractional translation)



   Cartesian axes

     site n.     atom                  positions (alat units)
         1           C   tau(   1) = (   0.0000000   0.0000000   0.0000000  )
         2           C   tau(   2) = (   1.0000000   0.5773503   0.0000000  )

     number of k points=    14  gaussian smearing, width (Ry)=  0.0010
                       cart. coord. in units 2pi/alat
        k(    1) = (   0.0000000   0.0000000   0.0000000), wk =   0.0200000
        k(    2) = (   0.0000000   0.1154701   0.0000000), wk =   0.1200000
        k(    3) = (   0.0000000   0.2309401   0.0000000), wk =   0.1200000
        k(    4) = (   0.0000000   0.3464102   0.0000000), wk =   0.1200000
        k(    5) = (   0.0000000   0.4618802   0.0000000), wk =   0.1200000
        k(    6) = (   0.0000000  -0.5773503   0.0000000), wk =   0.0600000
        k(    7) = (   0.1000000   0.1732051   0.0000000), wk =   0.1200000
        k(    8) = (   0.1000000   0.2886751   0.0000000), wk =   0.2400000
        k(    9) = (   0.1000000   0.4041452   0.0000000), wk =   0.2400000
        k(   10) = (   0.1000000  -0.6350853   0.0000000), wk =   0.2400000
        k(   11) = (   0.2000000   0.3464102   0.0000000), wk =   0.1200000
        k(   12) = (   0.2000000  -0.6928203   0.0000000), wk =   0.2400000
        k(   13) = (   0.2000000  -0.5773503   0.0000000), wk =   0.1200000
        k(   14) = (   0.3000000  -0.6350853   0.0000000), wk =   0.1200000

     Dense  grid:   234415 G-vectors     FFT dimensions: (  36,  36, 432)

     Smooth grid:   138983 G-vectors     FFT dimensions: (  30,  30, 360)

     Largest allocated arrays     est. size (Mb)     dimensions
        Kohn-Sham Wavefunctions         0.54 Mb     (   4444,    8)
        NL pseudopotentials             1.08 Mb     (   4444,   16)
        Each V/rho on FFT grid          2.14 Mb     ( 139968)
        Each G-vector array             0.45 Mb     (  58604)
        G-vector shells                 0.13 Mb     (  17306)
     Largest temporary arrays     est. size (Mb)     dimensions
        Auxiliary wavefunctions         2.17 Mb     (   4444,   32)
        Each subspace H/S matrix        0.02 Mb     (  32,  32)
        Each <psi_i|beta_j> matrix      0.00 Mb     (     16,    8)
        Arrays for rho mixing          17.09 Mb     ( 139968,   8)

     Initial potential from superposition of free atoms

     starting charge    7.99989, renormalised to    8.00000

     negative rho (up, down):  0.254E-04 0.000E+00
     Starting wfc are    8 randomized atomic wfcs

     total cpu time spent up to now is        7.0 secs

     per-process dynamical memory:    37.6 Mb

     Self-consistent Calculation

     iteration #  1     ecut=    99.00 Ry     beta=0.70
     Davidson diagonalization with overlap
     ethr =  1.00E-02,  avg # of iterations =  4.9

     negative rho (up, down):  0.178E-04 0.000E+00

     total cpu time spent up to now is       27.1 secs

     total energy              =     -22.76003843 Ry
     Harris-Foulkes estimate   =     -22.88447785 Ry
     estimated scf accuracy    <       0.20650735 Ry

     iteration #  2     ecut=    99.00 Ry     beta=0.70
     Davidson diagonalization with overlap
     ethr =  2.58E-03,  avg # of iterations =  4.7

     negative rho (up, down):  0.170E-04 0.000E+00

     total cpu time spent up to now is       44.9 secs

     total energy              =     -22.79119351 Ry
     Harris-Foulkes estimate   =     -22.79132759 Ry
     estimated scf accuracy    <       0.00249297 Ry

     iteration #  3     ecut=    99.00 Ry     beta=0.70
     Davidson diagonalization with overlap
     ethr =  3.12E-05,  avg # of iterations = 11.5

     negative rho (up, down):  0.186E-04 0.000E+00

     total cpu time spent up to now is       72.5 secs

     total energy              =     -22.79152105 Ry
     Harris-Foulkes estimate   =     -22.79149123 Ry
     estimated scf accuracy    <       0.00014246 Ry

     iteration #  4     ecut=    99.00 Ry     beta=0.70
     Davidson diagonalization with overlap
     ethr =  1.78E-06,  avg # of iterations =  4.1

     negative rho (up, down):  0.187E-04 0.000E+00

     total cpu time spent up to now is       89.3 secs

     total energy              =     -22.79152643 Ry
     Harris-Foulkes estimate   =     -22.79152565 Ry
     estimated scf accuracy    <       0.00000080 Ry

     iteration #  5     ecut=    99.00 Ry     beta=0.70
     Davidson diagonalization with overlap
     ethr =  1.01E-08,  avg # of iterations =  2.5

     negative rho (up, down):  0.187E-04 0.000E+00

     total cpu time spent up to now is      105.8 secs

     total energy              =     -22.79152673 Ry
     Harris-Foulkes estimate   =     -22.79152672 Ry
     estimated scf accuracy    <       0.00000002 Ry

     iteration #  6     ecut=    99.00 Ry     beta=0.70
     Davidson diagonalization with overlap
     ethr =  3.04E-10,  avg # of iterations =  2.0

     negative rho (up, down):  0.186E-04 0.000E+00

     total cpu time spent up to now is      120.8 secs

     End of self-consistent calculation

          k = 0.0000 0.0000 0.0000 ( 17511 PWs)   bands (ev):

   -22.4921 -10.6023  -6.0256  -6.0256   0.3035   1.0417   1.2090   1.5614

          k = 0.0000 0.1155 0.0000 ( 17485 PWs)   bands (ev):

   -22.2556 -10.3193  -6.9387  -6.5001   0.6255   1.3690   1.5400   1.8906

          k = 0.0000 0.2309 0.0000 ( 17423 PWs)   bands (ev):

   -21.5500  -9.4816  -9.1125  -7.5180   1.5909   2.3481   2.5330   2.8772

          k = 0.0000 0.3464 0.0000 ( 17363 PWs)   bands (ev):

   -20.3881 -11.7244  -8.5087  -8.1359   2.8941   3.1928   4.0081   4.1874

          k = 0.0000 0.4619 0.0000 ( 17326 PWs)   bands (ev):

   -18.8032 -14.3010  -9.1789  -6.4463   0.2227   4.6045   5.4557   6.2613

          k = 0.0000-0.5774 0.0000 ( 17316 PWs)   bands (ev):

   -17.2303 -16.2215  -9.4124  -5.3196  -1.2676   4.5010   8.1869   8.3398

          k = 0.1000 0.1732 0.0000 ( 17419 PWs)   bands (ev):

   -21.7846  -9.7586  -8.2829  -7.4485   1.2697   2.0226   2.2020   2.5487

          k = 0.1000 0.2887 0.0000 ( 17396 PWs)   bands (ev):

   -20.8508 -10.4395  -8.6937  -8.6625   2.5559   3.3174   3.5259   3.8507

          k = 0.1000 0.4041 0.0000 ( 17378 PWs)   bands (ev):

   -19.4755 -12.9485  -9.6114  -7.1128   1.3919   4.4705   5.2760   5.5105

          k = 0.1000-0.6351 0.0000 ( 17362 PWs)   bands (ev):

   -17.7352 -15.3319 -10.0885  -5.4652  -0.8835   5.5375   7.0159   7.8023

          k = 0.2000 0.3464 0.0000 ( 17413 PWs)   bands (ev):

   -19.7031 -11.9062 -10.4567  -7.3456   1.9671   4.1575   4.9307   5.1808

          k = 0.2000-0.6928 0.0000 ( 17354 PWs)   bands (ev):

   -18.1480 -13.9008 -11.5283  -5.6683  -0.2388   6.3681   7.0574   7.4966

          k = 0.2000-0.5774 0.0000 ( 17332 PWs)   bands (ev):

   -16.6245 -15.6599 -11.8318  -4.4572  -1.6466   7.9217   8.4063   8.9787

          k = 0.3000-0.6351 0.0000 ( 17307 PWs)   bands (ev):

   -16.5135 -14.8219 -13.1730  -3.9787  -1.9347   7.8046   8.7516  10.0944

     the Fermi energy is    -2.1187 ev

!    total energy              =     -22.79152673 Ry
     Harris-Foulkes estimate   =     -22.79152673 Ry
     estimated scf accuracy    <          6.8E-10 Ry

     The total energy is the sum of the following terms:

     one-electron contribution =    -353.76103795 Ry
     hartree contribution      =     177.88978646 Ry
     xc contribution           =      -7.02451668 Ry
     ewald contribution        =     160.10424143 Ry
     smearing contrib. (-TS)   =      -0.00000000 Ry

     convergence has been achieved in   6 iterations

     Writing output data file graphene.save

     init_run     :      5.02s CPU      6.90s WALL (       1 calls)
     electrons    :     69.61s CPU    113.84s WALL (       1 calls)

     Called by init_run:
     wfcinit      :      2.56s CPU      3.76s WALL (       1 calls)
     potinit      :      1.10s CPU      1.41s WALL (       1 calls)

     Called by electrons:
     c_bands      :     52.73s CPU     85.48s WALL (       6 calls)
     sum_band     :     11.53s CPU     19.73s WALL (       6 calls)
     v_of_rho     :      2.37s CPU      3.68s WALL (       7 calls)
     newd         :      2.41s CPU      3.80s WALL (       7 calls)
     mix_rho      :      0.45s CPU      0.71s WALL (       6 calls)

     Called by c_bands:
     init_us_2    :      0.73s CPU      0.92s WALL (     182 calls)
     cegterg      :     51.73s CPU     84.08s WALL (      84 calls)

     Called by *egterg:
     h_psi        :     49.71s CPU     80.09s WALL (     515 calls)
     s_psi        :      0.55s CPU      0.63s WALL (     515 calls)
     g_psi        :      0.23s CPU      0.27s WALL (     417 calls)
     cdiaghg      :      0.23s CPU      0.52s WALL (     501 calls)

     Called by h_psi:
     add_vuspsi   :      0.56s CPU      0.66s WALL (     515 calls)

     General routines
     calbec       :      0.98s CPU      2.56s WALL (     599 calls)
     fft          :      2.29s CPU      4.12s WALL (     107 calls)
     ffts         :      0.17s CPU      0.27s WALL (      13 calls)
     fftw         :     47.26s CPU     80.75s WALL (    5134 calls)
     interpolate  :      0.47s CPU      0.73s WALL (      13 calls)
     davcio       :      0.14s CPU      0.26s WALL (     266 calls)

     Parallel routines
     fft_scatter  :     18.85s CPU     48.03s WALL (    5254 calls)

     PWSCF        :  1m14.92s CPU     2m 1.20s WALL


   This run was terminated on:   3:55: 9  26Jul2015            

=------------------------------------------------------------------------------=
   JOB DONE.
=------------------------------------------------------------------------------=
