
     Program PWSCF v.5.0.2 (svn rev. 9656) starts on 26Jul2015 at  4: 1:53 

     This program is part of the open-source Quantum ESPRESSO suite
     for quantum simulation of materials; please cite
         "P. Giannozzi et al., J. Phys.:Condens. Matter 21 395502 (2009);
          URL http://www.quantum-espresso.org", 
     in publications or presentations arising from this work. More details at
     http://www.quantum-espresso.org/quote.php

     Parallel version (MPI), running on     4 processors
     R & G space division:  proc/nbgrp/npool/nimage =       4

     Current dimensions of program PWSCF are:
     Max number of different atomic species (ntypx) = 10
     Max number of k-points (npk) =  40000
     Max angular momentum in pseudopotentials (lmaxx) =  3
     Waiting for input...
     Reading input from standard input
               file C.pbe-rrkjus.UPF: wavefunction(s)  2S 2P renormalized

     Subspace diagonalization in iterative solution of the eigenvalue problem:
     a serial algorithm will be used


     Parallelization info
     --------------------
     sticks:   dense  smooth     PW     G-vecs:    dense   smooth      PW
     Min         211     145     46                58589    34703    5741
     Max         212     146     48                58614    34764    5748
     Sum         847     583    187               234415   138983   22977



     bravais-lattice index     =            0
     lattice parameter (alat)  =       4.6500  a.u.
     unit-cell volume          =    1044.8904 (a.u.)^3
     number of atoms/cell      =            2
     number of atomic types    =            1
     number of electrons       =         8.00
     number of Kohn-Sham states=            8
     kinetic-energy cutoff     =      99.0000  Ry
     charge density cutoff     =     560.0000  Ry
     convergence threshold     =      1.0E-08
     mixing beta               =       0.7000
     number of iterations used =            8  plain     mixing
     Exchange-correlation      =  SLA  PW   PBE  PBE ( 1 4 3 4 0)
     EXX-fraction              =        0.00

     celldm(1)=   4.650000  celldm(2)=   0.000000  celldm(3)=   0.000000
     celldm(4)=   0.000000  celldm(5)=   0.000000  celldm(6)=   0.000000

     crystal axes: (cart. coord. in units of alat)
               a(1) = (   1.000000   0.000000   0.000000 )  
               a(2) = (   0.500000   0.866025   0.000000 )  
               a(3) = (   0.000000   0.000000  12.000000 )  

     reciprocal axes: (cart. coord. in units 2 pi/alat)
               b(1) = (  1.000000 -0.577350  0.000000 )  
               b(2) = (  0.000000  1.154701  0.000000 )  
               b(3) = (  0.000000  0.000000  0.083333 )  


     PseudoPot. # 1 for C  read from file:
     ./C.pbe-rrkjus.UPF
     MD5 check sum: 00fb224312de0c5b6853bd333518df6f
     Pseudo is Ultrasoft, Zval =  4.0
     Generated by new atomic code, or converted to UPF format
     Using radial grid of  627 points,  4 beta functions with: 
                l(1) =   0
                l(2) =   0
                l(3) =   1
                l(4) =   1
     Q(r) pseudized with 0 coefficients 


     atomic species   valence    mass     pseudopotential
        C              4.00    12.00000     C ( 1.00)

     24 Sym. Ops., with inversion, found (12 have fractional translation)



   Cartesian axes

     site n.     atom                  positions (alat units)
         1           C   tau(   1) = (   0.0000000   0.0000000   0.0000000  )
         2           C   tau(   2) = (   1.0000000   0.5773503   0.0000000  )

     number of k points=    24  gaussian smearing, width (Ry)=  0.0010
                       cart. coord. in units 2pi/alat
        k(    1) = (   0.0000000   0.0000000   0.0000000), wk =   0.0102041
        k(    2) = (   0.0000000   0.0824786   0.0000000), wk =   0.0612245
        k(    3) = (   0.0000000   0.1649572   0.0000000), wk =   0.0612245
        k(    4) = (   0.0000000   0.2474358   0.0000000), wk =   0.0612245
        k(    5) = (   0.0000000   0.3299144   0.0000000), wk =   0.0612245
        k(    6) = (   0.0000000   0.4123931   0.0000000), wk =   0.0612245
        k(    7) = (   0.0000000   0.4948717   0.0000000), wk =   0.0612245
        k(    8) = (   0.0000000  -0.5773503   0.0000000), wk =   0.0306122
        k(    9) = (   0.0714286   0.1237179   0.0000000), wk =   0.0612245
        k(   10) = (   0.0714286   0.2061965   0.0000000), wk =   0.1224490
        k(   11) = (   0.0714286   0.2886751   0.0000000), wk =   0.1224490
        k(   12) = (   0.0714286   0.3711537   0.0000000), wk =   0.1224490
        k(   13) = (   0.0714286   0.4536324   0.0000000), wk =   0.1224490
        k(   14) = (   0.0714286  -0.6185896   0.0000000), wk =   0.1224490
        k(   15) = (   0.1428571   0.2474358   0.0000000), wk =   0.0612245
        k(   16) = (   0.1428571   0.3299144   0.0000000), wk =   0.1224490
        k(   17) = (   0.1428571   0.4123931   0.0000000), wk =   0.1224490
        k(   18) = (   0.1428571  -0.6598289   0.0000000), wk =   0.1224490
        k(   19) = (   0.1428571  -0.5773503   0.0000000), wk =   0.0612245
        k(   20) = (   0.2142857   0.3711537   0.0000000), wk =   0.0612245
        k(   21) = (   0.2142857  -0.7010682   0.0000000), wk =   0.1224490
        k(   22) = (   0.2142857  -0.6185896   0.0000000), wk =   0.1224490
        k(   23) = (   0.2857143  -0.6598289   0.0000000), wk =   0.0612245
        k(   24) = (   0.2857143  -0.5773503   0.0000000), wk =   0.0612245

     Dense  grid:   234415 G-vectors     FFT dimensions: (  36,  36, 432)

     Smooth grid:   138983 G-vectors     FFT dimensions: (  30,  30, 360)

     Largest allocated arrays     est. size (Mb)     dimensions
        Kohn-Sham Wavefunctions         0.53 Mb     (   4359,    8)
        NL pseudopotentials             1.06 Mb     (   4359,   16)
        Each V/rho on FFT grid          2.14 Mb     ( 139968)
        Each G-vector array             0.45 Mb     (  58604)
        G-vector shells                 0.13 Mb     (  17328)
     Largest temporary arrays     est. size (Mb)     dimensions
        Auxiliary wavefunctions         2.13 Mb     (   4359,   32)
        Each subspace H/S matrix        0.02 Mb     (  32,  32)
        Each <psi_i|beta_j> matrix      0.00 Mb     (     16,    8)
        Arrays for rho mixing          17.09 Mb     ( 139968,   8)

     Initial potential from superposition of free atoms

     starting charge    7.99989, renormalised to    8.00000

     negative rho (up, down):  0.254E-04 0.000E+00
     Starting wfc are    8 randomized atomic wfcs

     total cpu time spent up to now is        6.7 secs

     per-process dynamical memory:    37.6 Mb

     Self-consistent Calculation

     iteration #  1     ecut=    99.00 Ry     beta=0.70
     Davidson diagonalization with overlap
     ethr =  1.00E-02,  avg # of iterations =  5.2

     negative rho (up, down):  0.174E-04 0.000E+00

     total cpu time spent up to now is       28.4 secs

     total energy              =     -22.75971882 Ry
     Harris-Foulkes estimate   =     -22.88421413 Ry
     estimated scf accuracy    <       0.20660655 Ry

     iteration #  2     ecut=    99.00 Ry     beta=0.70
     Davidson diagonalization with overlap
     ethr =  2.58E-03,  avg # of iterations =  4.0

     negative rho (up, down):  0.170E-04 0.000E+00

     total cpu time spent up to now is       45.6 secs

     total energy              =     -22.79087469 Ry
     Harris-Foulkes estimate   =     -22.79100943 Ry
     estimated scf accuracy    <       0.00251237 Ry

     iteration #  3     ecut=    99.00 Ry     beta=0.70
     Davidson diagonalization with overlap
     ethr =  3.14E-05,  avg # of iterations = 11.1

     negative rho (up, down):  0.186E-04 0.000E+00

     total cpu time spent up to now is       74.7 secs

     total energy              =     -22.79122802 Ry
     Harris-Foulkes estimate   =     -22.79119753 Ry
     estimated scf accuracy    <       0.00013784 Ry

     iteration #  4     ecut=    99.00 Ry     beta=0.70
     Davidson diagonalization with overlap
     ethr =  1.72E-06,  avg # of iterations =  4.0

     negative rho (up, down):  0.187E-04 0.000E+00

     total cpu time spent up to now is       91.5 secs

     total energy              =     -22.79123376 Ry
     Harris-Foulkes estimate   =     -22.79123291 Ry
     estimated scf accuracy    <       0.00000091 Ry

     iteration #  5     ecut=    99.00 Ry     beta=0.70
     Davidson diagonalization with overlap
     ethr =  1.14E-08,  avg # of iterations =  2.7

     negative rho (up, down):  0.187E-04 0.000E+00

     total cpu time spent up to now is      108.5 secs

     total energy              =     -22.79123412 Ry
     Harris-Foulkes estimate   =     -22.79123412 Ry
     estimated scf accuracy    <       0.00000003 Ry

     iteration #  6     ecut=    99.00 Ry     beta=0.70
     Davidson diagonalization with overlap
     ethr =  3.29E-10,  avg # of iterations =  2.0

     negative rho (up, down):  0.186E-04 0.000E+00

     total cpu time spent up to now is      123.0 secs

     End of self-consistent calculation

          k = 0.0000 0.0000 0.0000 ( 17511 PWs)   bands (ev):

   -22.4916 -10.6018  -6.0250  -6.0250   0.3036   1.0417   1.2090   1.5613

          k = 0.0000 0.0825 0.0000 ( 17513 PWs)   bands (ev):

   -22.3709 -10.4572  -6.5071  -6.2789   0.4678   1.2087   1.3779   1.7293

          k = 0.0000 0.1650 0.0000 ( 17431 PWs)   bands (ev):

   -22.0096 -10.0262  -7.7707  -6.9084   0.9606   1.7093   1.8845   2.2332

          k = 0.0000 0.2474 0.0000 ( 17419 PWs)   bands (ev):

   -21.4110  -9.4728  -9.3182  -7.6702   1.7812   2.5403   2.7288   3.0714

          k = 0.0000 0.3299 0.0000 ( 17395 PWs)   bands (ev):

   -20.5806 -11.3450  -8.3819  -8.3551   2.9259   3.2623   3.7637   3.9106

          k = 0.0000 0.4124 0.0000 ( 17329 PWs)   bands (ev):

   -19.5295 -13.2206  -8.9404  -7.1885   1.3270   4.3610   4.7806   5.2143

          k = 0.0000 0.4949 0.0000 ( 17348 PWs)   bands (ev):

   -18.2868 -14.9856  -9.2921  -5.9773  -0.4215   4.5578   6.1957   7.0211

          k = 0.0000-0.5774 0.0000 ( 17316 PWs)   bands (ev):

   -17.2297 -16.2210  -9.4118  -5.3191  -1.2671   4.5015   8.1870   8.3399

          k = 0.0714 0.1237 0.0000 ( 17455 PWs)   bands (ev):

   -22.1299 -10.1693  -7.3145  -6.7868   0.7965   1.5426   1.7156   2.0652

          k = 0.0714 0.2062 0.0000 ( 17411 PWs)   bands (ev):

   -21.6500  -9.5994  -8.6900  -7.5921   1.4536   2.2090   2.3911   2.7366

          k = 0.0714 0.2887 0.0000 ( 17414 PWs)   bands (ev):

   -20.9354 -10.4124  -8.7619  -8.3951   2.4374   3.1973   3.4042   3.7344

          k = 0.0714 0.3712 0.0000 ( 17371 PWs)   bands (ev):

   -19.9944 -12.2550  -9.0619  -7.6892   2.2277   3.7421   4.5469   4.7547

          k = 0.0714 0.4536 0.0000 ( 17345 PWs)   bands (ev):

   -18.8437 -14.0644  -9.5310  -6.4664   0.3570   5.1171   5.4320   6.1899

          k = 0.0714-0.6186 0.0000 ( 17366 PWs)   bands (ev):

   -17.5583 -15.6944  -9.7720  -5.4008  -1.0582   5.0471   7.3088   8.1227

          k = 0.1429 0.2474 0.0000 ( 17403 PWs)   bands (ev):

   -21.0542  -9.8598  -8.8987  -8.6668   2.2746   3.0395   3.2355   3.5749

          k = 0.1429 0.3299 0.0000 ( 17405 PWs)   bands (ev):

   -20.2289 -11.3524  -9.6270  -7.9448   2.8296   3.4202   4.1989   4.4175

          k = 0.1429 0.4124 0.0000 ( 17398 PWs)   bands (ev):

   -19.1861 -13.0467 -10.2891  -6.7857   1.0530   4.8828   5.6703   5.9369

          k = 0.1429-0.6598 0.0000 ( 17348 PWs)   bands (ev):

   -17.9577 -14.7253 -10.6780  -5.5656  -0.5822   6.4548   6.7122   7.4075

          k = 0.1429-0.5774 0.0000 ( 17358 PWs)   bands (ev):

   -16.9204 -15.9208 -10.8071  -4.8779  -1.4163   6.4402   8.6030   8.7892

          k = 0.2143 0.3712 0.0000 ( 17425 PWs)   bands (ev):

   -19.3014 -12.3821 -10.8985  -6.8959   1.3486   4.7228   5.4894   5.7682

          k = 0.2143-0.7011 0.0000 ( 17367 PWs)   bands (ev):

   -18.1738 -13.7231 -11.7109  -5.6832  -0.1827   6.3303   7.0064   7.4563

          k = 0.2143-0.6186 0.0000 ( 17339 PWs)   bands (ev):

   -16.9261 -15.1684 -12.0547  -4.5565  -1.4816   8.1527   8.1583   8.3922

          k = 0.2857-0.6598 0.0000 ( 17313 PWs)   bands (ev):

   -16.9990 -14.4692 -12.8681  -4.4610  -1.4501   7.8171   8.0384   9.3119

          k = 0.2857-0.5774 0.0000 ( 17290 PWs)   bands (ev):

   -15.9958 -15.3316 -13.2633  -3.5698  -2.3502   7.7877   9.6494   9.7591

     the Fermi energy is    -3.3376 ev

!    total energy              =     -22.79123412 Ry
     Harris-Foulkes estimate   =     -22.79123412 Ry
     estimated scf accuracy    <          4.9E-10 Ry

     The total energy is the sum of the following terms:

     one-electron contribution =    -353.76103441 Ry
     hartree contribution      =     177.89011860 Ry
     xc contribution           =      -7.02455974 Ry
     ewald contribution        =     160.10424143 Ry
     smearing contrib. (-TS)   =      -0.00000000 Ry

     convergence has been achieved in   6 iterations

     Writing output data file graphene.save

     init_run     :      6.28s CPU      6.65s WALL (       1 calls)
     electrons    :    106.83s CPU    116.27s WALL (       1 calls)

     Called by init_run:
     wfcinit      :      3.89s CPU      4.11s WALL (       1 calls)
     potinit      :      1.07s CPU      1.15s WALL (       1 calls)

     Called by electrons:
     c_bands      :     83.73s CPU     91.34s WALL (       6 calls)
     sum_band     :     17.14s CPU     18.53s WALL (       6 calls)
     v_of_rho     :      2.67s CPU      2.86s WALL (       7 calls)
     newd         :      2.75s CPU      2.89s WALL (       7 calls)
     mix_rho      :      0.43s CPU      0.46s WALL (       6 calls)

     Called by c_bands:
     init_us_2    :      0.98s CPU      1.21s WALL (     312 calls)
     cegterg      :     82.20s CPU     89.50s WALL (     144 calls)

     Called by *egterg:
     h_psi        :     78.09s CPU     84.89s WALL (     866 calls)
     s_psi        :      1.07s CPU      1.06s WALL (     866 calls)
     g_psi        :      0.40s CPU      0.41s WALL (     698 calls)
     cdiaghg      :      0.39s CPU      0.41s WALL (     842 calls)

     Called by h_psi:
     add_vuspsi   :      0.95s CPU      0.97s WALL (     866 calls)

     General routines
     calbec       :      1.47s CPU      1.56s WALL (    1010 calls)
     fft          :      2.43s CPU      2.74s WALL (     107 calls)
     ffts         :      0.16s CPU      0.17s WALL (      13 calls)
     fftw         :     72.86s CPU     79.98s WALL (    8734 calls)
     interpolate  :      0.52s CPU      0.54s WALL (      13 calls)
     davcio       :      0.29s CPU      0.43s WALL (     456 calls)

     Parallel routines
     fft_scatter  :     27.87s CPU     34.36s WALL (    8854 calls)

     PWSCF        :  1m53.43s CPU     2m 3.29s WALL


   This run was terminated on:   4: 3:56  26Jul2015            

=------------------------------------------------------------------------------=
   JOB DONE.
=------------------------------------------------------------------------------=
