
     Program PWSCF v.5.0.2 (svn rev. 9656) starts on 11Jul2015 at 20:23:47 

     This program is part of the open-source Quantum ESPRESSO suite
     for quantum simulation of materials; please cite
         "P. Giannozzi et al., J. Phys.:Condens. Matter 21 395502 (2009);
          URL http://www.quantum-espresso.org", 
     in publications or presentations arising from this work. More details at
     http://www.quantum-espresso.org/quote.php

     Parallel version (MPI), running on     4 processors
     R & G space division:  proc/nbgrp/npool/nimage =       4

     Current dimensions of program PWSCF are:
     Max number of different atomic species (ntypx) = 10
     Max number of k-points (npk) =  40000
     Max angular momentum in pseudopotentials (lmaxx) =  3
     Waiting for input...
     Reading input from standard input
               file Cu.pbe.UPF: wavefunction(s)  4S 3D renormalized

     Subspace diagonalization in iterative solution of the eigenvalue problem:
     a serial algorithm will be used


     Parallelization info
     --------------------
     sticks:   dense  smooth     PW     G-vecs:    dense   smooth      PW
     Min         214     214     63                 4156     4156     684
     Max         217     217     64                 4157     4157     688
     Sum         859     859    253                16625    16625    2741



     bravais-lattice index     =            2
     lattice parameter (alat)  =      10.2000  a.u.
     unit-cell volume          =     265.3020 (a.u.)^3
     number of atoms/cell      =            2
     number of atomic types    =            1
     number of electrons       =        22.00
     number of Kohn-Sham states=           15
     kinetic-energy cutoff     =      60.0000  Ry
     charge density cutoff     =     240.0000  Ry
     convergence threshold     =      1.0E-07
     mixing beta               =       0.7000
     number of iterations used =            8  plain     mixing
     Exchange-correlation      =  SLA  PW   PBX  PBC ( 1 4 3 4 0)
     EXX-fraction              =        0.00

     celldm(1)=  10.200000  celldm(2)=   0.000000  celldm(3)=   0.000000
     celldm(4)=   0.000000  celldm(5)=   0.000000  celldm(6)=   0.000000

     crystal axes: (cart. coord. in units of alat)
               a(1) = (  -0.500000   0.000000   0.500000 )  
               a(2) = (   0.000000   0.500000   0.500000 )  
               a(3) = (  -0.500000   0.500000   0.000000 )  

     reciprocal axes: (cart. coord. in units 2 pi/alat)
               b(1) = ( -1.000000 -1.000000  1.000000 )  
               b(2) = (  1.000000  1.000000  1.000000 )  
               b(3) = ( -1.000000  1.000000 -1.000000 )  


     PseudoPot. # 1 for Cu read from file:
     ./Cu.pbe.UPF
     MD5 check sum: 0c51aa2b3b25e0d1c3270f17c0a46a12
     Pseudo is Projector augmented-wave + core cor, Zval = 11.0
     Generated using "atomic" code by A. Dal Corso  v.5.0.99 svn rev. 10869
     Shape of augmentation charge: BESSEL
     Using radial grid of 1199 points,  6 beta functions with: 
                l(1) =   0
                l(2) =   0
                l(3) =   1
                l(4) =   1
                l(5) =   2
                l(6) =   2
     Q(r) pseudized with 0 coefficients 


     atomic species   valence    mass     pseudopotential
        Cu            11.00    63.54600     Cu( 1.00)

     48 Sym. Ops., with inversion, found (24 have fractional translation)



   Cartesian axes

     site n.     atom                  positions (alat units)
         1           Cu  tau(   1) = (   0.0000000   0.0000000   0.0000000  )
         2           Cu  tau(   2) = (   0.2500000   0.2500000   0.2500000  )

     number of k points=    56  gaussian smearing, width (Ry)=  0.0030
                       cart. coord. in units 2pi/alat
        k(    1) = (   0.0000000   0.0000000   0.0000000), wk =   0.0015026
        k(    2) = (  -0.0909091   0.0909091  -0.0909091), wk =   0.0120210
        k(    3) = (  -0.1818182   0.1818182  -0.1818182), wk =   0.0120210
        k(    4) = (  -0.2727273   0.2727273  -0.2727273), wk =   0.0120210
        k(    5) = (  -0.3636364   0.3636364  -0.3636364), wk =   0.0120210
        k(    6) = (  -0.4545455   0.4545455  -0.4545455), wk =   0.0120210
        k(    7) = (   0.0000000   0.1818182   0.0000000), wk =   0.0090158
        k(    8) = (  -0.0909091   0.2727273  -0.0909091), wk =   0.0360631
        k(    9) = (  -0.1818182   0.3636364  -0.1818182), wk =   0.0360631
        k(   10) = (  -0.2727273   0.4545455  -0.2727273), wk =   0.0360631
        k(   11) = (  -0.3636364   0.5454545  -0.3636364), wk =   0.0360631
        k(   12) = (   0.5454545  -0.3636364   0.5454545), wk =   0.0360631
        k(   13) = (   0.4545455  -0.2727273   0.4545455), wk =   0.0360631
        k(   14) = (   0.3636364  -0.1818182   0.3636364), wk =   0.0360631
        k(   15) = (   0.2727273  -0.0909091   0.2727273), wk =   0.0360631
        k(   16) = (   0.1818182  -0.0000000   0.1818182), wk =   0.0180316
        k(   17) = (   0.0000000   0.3636364   0.0000000), wk =   0.0090158
        k(   18) = (  -0.0909091   0.4545455  -0.0909091), wk =   0.0360631
        k(   19) = (  -0.1818182   0.5454545  -0.1818182), wk =   0.0360631
        k(   20) = (  -0.2727273   0.6363636  -0.2727273), wk =   0.0360631
        k(   21) = (   0.6363636  -0.2727273   0.6363636), wk =   0.0360631
        k(   22) = (   0.5454545  -0.1818182   0.5454545), wk =   0.0360631
        k(   23) = (   0.4545455  -0.0909091   0.4545455), wk =   0.0360631
        k(   24) = (   0.3636364   0.0000000   0.3636364), wk =   0.0180316
        k(   25) = (   0.0000000   0.5454545   0.0000000), wk =   0.0090158
        k(   26) = (  -0.0909091   0.6363636  -0.0909091), wk =   0.0360631
        k(   27) = (  -0.1818182   0.7272727  -0.1818182), wk =   0.0360631
        k(   28) = (   0.7272727  -0.1818182   0.7272727), wk =   0.0360631
        k(   29) = (   0.6363636  -0.0909091   0.6363636), wk =   0.0360631
        k(   30) = (   0.5454545   0.0000000   0.5454545), wk =   0.0180316
        k(   31) = (   0.0000000   0.7272727   0.0000000), wk =   0.0090158
        k(   32) = (  -0.0909091   0.8181818  -0.0909091), wk =   0.0360631
        k(   33) = (   0.8181818  -0.0909091   0.8181818), wk =   0.0360631
        k(   34) = (   0.7272727   0.0000000   0.7272727), wk =   0.0180316
        k(   35) = (   0.0000000   0.9090909   0.0000000), wk =   0.0090158
        k(   36) = (   0.9090909  -0.0000000   0.9090909), wk =   0.0180316
        k(   37) = (  -0.1818182   0.3636364   0.0000000), wk =   0.0360631
        k(   38) = (  -0.2727273   0.4545455  -0.0909091), wk =   0.0721262
        k(   39) = (  -0.3636364   0.5454545  -0.1818182), wk =   0.0721262
        k(   40) = (   0.5454545  -0.3636364   0.7272727), wk =   0.0721262
        k(   41) = (  -0.1818182   0.5454545   0.0000000), wk =   0.0360631
        k(   42) = (  -0.2727273   0.6363636  -0.0909091), wk =   0.0721262
        k(   43) = (   0.6363636  -0.2727273   0.8181818), wk =   0.0721262
        k(   44) = (   0.5454545  -0.1818182   0.7272727), wk =   0.0721262
        k(   45) = (   0.4545455  -0.0909091   0.6363636), wk =   0.0721262
        k(   46) = (   0.3636364   0.0000000   0.5454545), wk =   0.0360631
        k(   47) = (  -0.1818182   0.7272727   0.0000000), wk =   0.0360631
        k(   48) = (   0.7272727  -0.1818182   0.9090909), wk =   0.0721262
        k(   49) = (   0.6363636  -0.0909091   0.8181818), wk =   0.0721262
        k(   50) = (   0.5454545   0.0000000   0.7272727), wk =   0.0360631
        k(   51) = (   0.8181818  -0.0909091   1.0000000), wk =   0.0360631
        k(   52) = (   0.7272727   0.0000000   0.9090909), wk =   0.0360631
        k(   53) = (   0.6363636  -0.2727273   1.0000000), wk =   0.0360631
        k(   54) = (   0.5454545  -0.1818182   0.9090909), wk =   0.0721262
        k(   55) = (   0.6363636  -0.0909091   1.0000000), wk =   0.0360631
        k(   56) = (   0.5454545   0.0000000   0.9090909), wk =   0.0360631

     Dense  grid:    16625 G-vectors     FFT dimensions: (  36,  36,  36)

     Largest allocated arrays     est. size (Mb)     dimensions
        Kohn-Sham Wavefunctions         0.12 Mb     (    523,   15)
        NL pseudopotentials             0.29 Mb     (    523,   36)
        Each V/rho on FFT grid          0.18 Mb     (  11664)
        Each G-vector array             0.03 Mb     (   4157)
        G-vector shells                 0.00 Mb     (    212)
     Largest temporary arrays     est. size (Mb)     dimensions
        Auxiliary wavefunctions         0.48 Mb     (    523,   60)
        Each subspace H/S matrix        0.05 Mb     (  60,  60)
        Each <psi_i|beta_j> matrix      0.01 Mb     (     36,   15)
        Arrays for rho mixing           1.42 Mb     (  11664,   8)

     Check: negative/imaginary core charge=   -0.000021    0.000000

     Initial potential from superposition of free atoms

     starting charge   21.99954, renormalised to   22.00000
     Starting wfc are   18 randomized atomic wfcs
     Checking if some PAW data can be deallocated... 

     total cpu time spent up to now is        3.6 secs

     per-process dynamical memory:    12.0 Mb

     Self-consistent Calculation

     iteration #  1     ecut=    60.00 Ry     beta=0.70
     Davidson diagonalization with overlap
     ethr =  1.00E-02,  avg # of iterations =  3.6

     Threshold (ethr) on eigenvalues was too large:
     Diagonalizing with lowered threshold

     Davidson diagonalization with overlap
     ethr =  2.09E-05,  avg # of iterations =  4.5

     total cpu time spent up to now is       14.9 secs

     total energy              =    -426.03736987 Ry
     Harris-Foulkes estimate   =    -426.03792866 Ry
     estimated scf accuracy    <       0.00580194 Ry

     iteration #  2     ecut=    60.00 Ry     beta=0.70
     Davidson diagonalization with overlap
     ethr =  2.64E-05,  avg # of iterations =  2.1

     total cpu time spent up to now is       20.0 secs

     total energy              =    -426.03581069 Ry
     Harris-Foulkes estimate   =    -426.03977048 Ry
     estimated scf accuracy    <       0.00854743 Ry

     iteration #  3     ecut=    60.00 Ry     beta=0.70
     Davidson diagonalization with overlap
     ethr =  2.64E-05,  avg # of iterations =  2.2

     total cpu time spent up to now is       25.1 secs

     total energy              =    -426.03789007 Ry
     Harris-Foulkes estimate   =    -426.03870136 Ry
     estimated scf accuracy    <       0.00286792 Ry

     iteration #  4     ecut=    60.00 Ry     beta=0.70
     Davidson diagonalization with overlap
     ethr =  1.30E-05,  avg # of iterations =  1.1

     total cpu time spent up to now is       29.3 secs

     total energy              =    -426.03825408 Ry
     Harris-Foulkes estimate   =    -426.03825462 Ry
     estimated scf accuracy    <       0.00000320 Ry

     iteration #  5     ecut=    60.00 Ry     beta=0.70
     Davidson diagonalization with overlap
     ethr =  1.45E-08,  avg # of iterations =  3.9

     total cpu time spent up to now is       36.1 secs

     total energy              =    -426.03828062 Ry
     Harris-Foulkes estimate   =    -426.03828118 Ry
     estimated scf accuracy    <       0.00000399 Ry

     iteration #  6     ecut=    60.00 Ry     beta=0.70
     Davidson diagonalization with overlap
     ethr =  1.45E-08,  avg # of iterations =  1.0

     total cpu time spent up to now is       40.2 secs

     total energy              =    -426.03828076 Ry
     Harris-Foulkes estimate   =    -426.03828079 Ry
     estimated scf accuracy    <       0.00000113 Ry

     iteration #  7     ecut=    60.00 Ry     beta=0.70
     Davidson diagonalization with overlap
     ethr =  5.12E-09,  avg # of iterations =  1.0

     total cpu time spent up to now is       44.3 secs

     total energy              =    -426.03828076 Ry
     Harris-Foulkes estimate   =    -426.03828077 Ry
     estimated scf accuracy    <       0.00000094 Ry

     iteration #  8     ecut=    60.00 Ry     beta=0.70
     Davidson diagonalization with overlap
     ethr =  4.28E-09,  avg # of iterations =  1.0

     total cpu time spent up to now is       48.6 secs

     total energy              =    -426.03828076 Ry
     Harris-Foulkes estimate   =    -426.03828076 Ry
     estimated scf accuracy    <       0.00000076 Ry

     iteration #  9     ecut=    60.00 Ry     beta=0.70
     Davidson diagonalization with overlap
     ethr =  3.47E-09,  avg # of iterations =  1.0

     total cpu time spent up to now is       52.9 secs

     total energy              =    -426.03828091 Ry
     Harris-Foulkes estimate   =    -426.03828076 Ry
     estimated scf accuracy    <       0.00000070 Ry

     iteration # 10     ecut=    60.00 Ry     beta=0.70
     Davidson diagonalization with overlap
     ethr =  3.19E-09,  avg # of iterations =  1.0

     total cpu time spent up to now is       57.2 secs

     total energy              =    -426.03828057 Ry
     Harris-Foulkes estimate   =    -426.03828096 Ry
     estimated scf accuracy    <       0.00000221 Ry

     iteration # 11     ecut=    60.00 Ry     beta=0.70
     Davidson diagonalization with overlap
     ethr =  3.19E-09,  avg # of iterations =  1.8

     total cpu time spent up to now is       61.6 secs

     total energy              =    -426.03828069 Ry
     Harris-Foulkes estimate   =    -426.03828069 Ry
     estimated scf accuracy    <       0.00000026 Ry

     iteration # 12     ecut=    60.00 Ry     beta=0.70
     Davidson diagonalization with overlap
     ethr =  1.16E-09,  avg # of iterations =  1.0

     total cpu time spent up to now is       66.0 secs

     total energy              =    -426.03828069 Ry
     Harris-Foulkes estimate   =    -426.03828069 Ry
     estimated scf accuracy    <       0.00000021 Ry

     iteration # 13     ecut=    60.00 Ry     beta=0.70
     Davidson diagonalization with overlap
     ethr =  9.59E-10,  avg # of iterations =  1.0

     total cpu time spent up to now is       70.3 secs

     total energy              =    -426.03828068 Ry
     Harris-Foulkes estimate   =    -426.03828069 Ry
     estimated scf accuracy    <       0.00000021 Ry

     iteration # 14     ecut=    60.00 Ry     beta=0.70
     Davidson diagonalization with overlap
     ethr =  9.35E-10,  avg # of iterations =  1.0

     total cpu time spent up to now is       74.5 secs

     total energy              =    -426.03828067 Ry
     Harris-Foulkes estimate   =    -426.03828068 Ry
     estimated scf accuracy    <       0.00000012 Ry

     iteration # 15     ecut=    60.00 Ry     beta=0.70
     Davidson diagonalization with overlap
     ethr =  5.47E-10,  avg # of iterations =  1.0

     total cpu time spent up to now is       78.6 secs

     End of self-consistent calculation

          k = 0.0000 0.0000 0.0000 (  2085 PWs)   bands (ev):

     0.6659   3.9723   3.9723   3.9723   3.9954   3.9954   5.0276   5.0276
     5.0276   5.6511   5.6511  16.3804  16.3804  16.3804  17.3240

          k =-0.0909 0.0909-0.0909 (  2079 PWs)   bands (ev):

     0.7926   3.9069   3.9069   3.9749   4.0811   4.0811   5.0015   5.0234
     5.0234   5.6517   5.6517  14.5320  15.8041  15.8041  17.8040

          k =-0.1818 0.1818-0.1818 (  2082 PWs)   bands (ev):

     1.1646   3.8671   3.8671   3.9859   4.1667   4.1667   4.9346   5.0254
     5.0254   5.6495   5.6495  12.2185  15.0557  15.0557  17.6555

          k =-0.2727 0.2727-0.2727 (  2072 PWs)   bands (ev):

     1.7487   3.8682   3.8682   4.0097   4.2023   4.2023   4.8689   5.0640
     5.0640   5.6363   5.6363  10.0749  14.4452  14.4452  17.5311

          k =-0.3636 0.3636-0.3636 (  2072 PWs)   bands (ev):

     2.4456   3.9067   3.9067   4.0336   4.1728   4.1728   4.9144   5.1434
     5.1434   5.6073   5.6073   8.2000  14.0168  14.0168  17.5417

          k =-0.4545 0.4545-0.4545 (  2072 PWs)   bands (ev):

     2.9842   3.9643   3.9643   4.0250   4.1111   4.1111   5.2169   5.2169
     5.2674   5.5747   5.5747   6.7507  13.7952  13.7952  17.6708

          k = 0.0000 0.1818 0.0000 (  2073 PWs)   bands (ev):

     0.8351   3.8427   3.9796   3.9796   4.0322   4.1330   4.9252   5.0577
     5.0577   5.6211   5.6782  14.9746  14.9746  15.5375  16.6403

          k =-0.0909 0.2727-0.0909 (  2075 PWs)   bands (ev):

     1.1262   3.7897   3.9532   3.9869   4.1114   4.2140   4.8298   5.0737
     5.0902   5.5924   5.6962  13.0036  14.2153  15.0987  16.9026

          k =-0.1818 0.3636-0.1818 (  2078 PWs)   bands (ev):

     1.6430   3.7739   3.9469   3.9993   4.1645   4.2738   4.7600   5.0829
     5.1409   5.5645   5.7019  10.8243  13.6471  14.4050  17.0339

          k =-0.2727 0.4545-0.2727 (  2073 PWs)   bands (ev):

     2.3145   3.7962   3.9686   4.0159   4.1603   4.2692   4.7739   5.1444
     5.2080   5.5406   5.6882   8.8583  13.3184  13.7229  16.7687

          k =-0.3636 0.5455-0.3636 (  2085 PWs)   bands (ev):

     2.9370   3.8399   3.9837   4.0208   4.1417   4.2095   4.9439   5.2325
     5.3588   5.5493   5.6522   7.2181  13.1636  13.2581  16.6759

          k = 0.5455-0.3636 0.5455 (  2084 PWs)   bands (ev):

     3.1367   3.8833   3.9354   4.0424   4.1304   4.1843   5.0954   5.1710
     5.5727   5.6036   5.6744   6.4959  12.8031  13.4740  16.8252

          k = 0.4545-0.2727 0.4545 (  2072 PWs)   bands (ev):

     2.7529   3.8651   3.9295   4.0489   4.1079   4.2526   4.9678   5.0677
     5.3334   5.5404   5.6591   7.7260  12.6872  13.9457  17.2135

          k = 0.3636-0.1818 0.3636 (  2074 PWs)   bands (ev):

     2.0790   3.8153   3.9338   4.0053   4.1514   4.2890   4.8417   4.9817
     5.2375   5.5498   5.6905   9.4920  12.8286  14.6231  17.8227

          k = 0.2727-0.0909 0.2727 (  2079 PWs)   bands (ev):

     1.4467   3.8033   3.9194   3.9891   4.1500   4.2578   4.8641   4.9561
     5.1581   5.5829   5.6953  11.5429  13.2142  15.4202  18.1807

          k = 0.1818-0.0000 0.1818 (  2077 PWs)   bands (ev):

     1.0015   3.8352   3.9204   3.9836   4.1024   4.1740   4.9350   4.9825
     5.0909   5.6187   5.6794  13.6847  13.9019  16.0914  17.6828

          k = 0.0000 0.3636 0.0000 (  2061 PWs)   bands (ev):

     1.3351   3.7215   3.9954   3.9954   4.1389   4.2798   4.6768   5.1522
     5.1522   5.5325   5.7257  13.4125  13.4125  13.8834  15.7345

          k =-0.0909 0.4545-0.0909 (  2064 PWs)   bands (ev):

     1.7751   3.6880   3.9969   3.9998   4.2085   4.3466   4.5551   5.2056
     5.2196   5.4802   5.7460  11.6293  12.7976  13.3200  15.8723

          k =-0.1818 0.5455-0.1818 (  2087 PWs)   bands (ev):

     2.3921   3.6934   3.9938   3.9996   4.2470   4.3522   4.5470   5.2628
     5.2772   5.4682   5.7577   9.6614  12.4386  12.5213  15.8228

          k =-0.2727 0.6364-0.2727 (  2091 PWs)   bands (ev):

     3.0283   3.7210   3.9808   3.9852   4.2713   4.2955   4.6892   5.2127
     5.4800   5.5393   5.7672   7.9117  11.7737  12.3779  15.7731

          k = 0.6364-0.2727 0.6364 (  2079 PWs)   bands (ev):

     3.3601   3.7546   3.9336   3.9931   4.2138   4.3186   4.9058   5.1040
     5.6288   5.6497   6.1683   6.5449  11.2133  12.6302  15.9261

          k = 0.5455-0.1818 0.5455 (  2076 PWs)   bands (ev):

     3.1583   3.8370   3.8638   4.0506   4.1133   4.3788   4.9821   5.0037
     5.5563   5.6409   5.6928   7.4598  10.9044  13.1741  16.2960

          k = 0.4545-0.0909 0.4545 (  2078 PWs)   bands (ev):

     2.5857   3.8065   3.9104   4.0234   4.1135   4.4040   4.8938   4.8989
     5.4135   5.4834   5.7229   9.1111  10.8778  13.9501  16.8871

          k = 0.3636 0.0000 0.3636 (  2073 PWs)   bands (ev):

     1.9466   3.7828   3.9615   3.9628   4.1474   4.3533   4.8310   4.8992
     5.3027   5.5071   5.7220  10.9047  11.2650  14.8313  17.6972

          k = 0.0000 0.5455 0.0000 (  2061 PWs)   bands (ev):

     2.1355   3.6372   4.0083   4.0083   4.3049   4.3688   4.4111   5.3104
     5.3104   5.3904   5.7828  11.8334  12.1078  12.1078  15.0852

          k =-0.0909 0.6364-0.0909 (  2078 PWs)   bands (ev):

     2.6799   3.6293   3.9909   4.0089   4.2681   4.3858   4.4613   5.2782
     5.4043   5.4353   5.8289  10.3297  11.3804  11.6708  15.1787

          k =-0.1818 0.7273-0.1818 (  2092 PWs)   bands (ev):

     3.2721   3.6509   3.9341   3.9945   4.2796   4.4414   4.5244   5.1610
     5.5537   5.5645   5.9172   8.7193  10.4595  11.5459  15.1716

          k = 0.7273-0.1818 0.7273 (  2093 PWs)   bands (ev):

     3.6132   3.6902   3.9201   3.9544   4.2592   4.4928   4.7063   5.0253
     5.6492   5.7191   6.3380   7.2801   9.7225  11.7579  15.2944

          k = 0.6364-0.0909 0.6364 (  2090 PWs)   bands (ev):

     3.5133   3.7953   3.8950   3.9718   4.1698   4.5371   4.8955   4.9046
     5.7057   5.7074   6.1288   7.4526   9.2585  12.2841  15.6121

          k = 0.5455 0.0000 0.5455 (  2089 PWs)   bands (ev):

     3.1401   3.8382   3.8456   4.0486   4.0860   4.5119   4.8464   4.9802
     5.5387   5.6037   5.7301   8.7811   9.2763  13.0574  16.1390

          k = 0.0000 0.7273 0.0000 (  2076 PWs)   bands (ev):

     3.1406   3.6134   4.0133   4.0133   4.0689   4.4957   4.5142   5.2031
     5.4994   5.4994   5.9327   9.6886  11.1389  11.1389  14.7125

          k =-0.0909 0.8182-0.0909 (  2088 PWs)   bands (ev):

     3.6374   3.6416   3.8935   4.0074   4.1198   4.4982   4.6097   5.0843
     5.5924   5.6063   6.1283   8.6677  10.2452  10.9227  14.8012

          k = 0.8182-0.0909 0.8182 (  2093 PWs)   bands (ev):

     3.6571   3.8220   3.9126   3.9831   4.2564   4.5405   4.6796   4.9421
     5.6640   5.7287   6.5937   7.7692   9.0280  11.0627  14.8890

          k = 0.7273 0.0000 0.7273 (  2093 PWs)   bands (ev):

     3.6311   3.8813   3.9015   3.9412   4.2239   4.6829   4.7318   4.8431
     5.7002   5.7737   6.8258   7.4910   8.2962  11.5404  15.1502

          k = 0.0000 0.9091 0.0000 (  2080 PWs)   bands (ev):

     3.6724   3.8247   4.0137   4.0137   4.0491   4.4504   4.7471   4.9832
     5.6385   5.6385   6.4719   7.7873  10.6062  10.6062  14.5930

          k = 0.9091-0.0000 0.9091 (  2084 PWs)   bands (ev):

     3.7082   3.7553   4.0056   4.0141   4.3052   4.3768   4.8398   4.8622
     5.6648   5.6875   7.0636   7.0708   9.9227  10.6554  14.6824

          k =-0.1818 0.3636 0.0000 (  2076 PWs)   bands (ev):

     1.4916   3.7467   3.9698   3.9885   4.1523   4.2927   4.7199   5.0665
     5.1916   5.5416   5.7193  12.2258  12.5224  14.7697  16.9188

          k =-0.2727 0.4545-0.0909 (  2080 PWs)   bands (ev):

     2.0613   3.7420   3.9674   4.0000   4.1734   4.3524   4.6704   5.0751
     5.2943   5.4943   5.7307  10.2758  11.9630  13.9990  17.0510

          k =-0.3636 0.5455-0.1818 (  2078 PWs)   bands (ev):

     2.7270   3.7705   3.9333   4.0436   4.1600   4.3409   4.7471   5.1359
     5.3804   5.5097   5.7218   8.4198  11.7531  13.2257  16.8509

          k = 0.5455-0.3636 0.7273 (  2079 PWs)   bands (ev):

     3.2220   3.7967   3.8953   4.0551   4.1790   4.2836   4.9251   5.1354
     5.5820   5.6410   5.7991   6.8993  11.7407  12.7115  16.7557

          k =-0.1818 0.5455 0.0000 (  2071 PWs)   bands (ev):

     2.2688   3.6662   3.9771   4.0174   4.2692   4.4132   4.4454   5.2265
     5.3532   5.4215   5.7738  10.8932  11.3644  12.7075  16.1529

          k =-0.2727 0.6364-0.0909 (  2074 PWs)   bands (ev):

     2.8847   3.6803   3.9245   4.0349   4.2982   4.3912   4.5187   5.2029
     5.4426   5.5014   5.8048   9.2354  10.8520  11.9598  16.2493

          k = 0.6364-0.2727 0.8182 (  2080 PWs)   bands (ev):

     3.3998   3.7020   3.8760   4.0366   4.2973   4.3800   4.6969   5.0998
     5.6063   5.6685   5.9599   7.6301  10.5385  11.5715  16.2907

          k = 0.5455-0.1818 0.7273 (  2084 PWs)   bands (ev):

     3.5224   3.7399   3.8491   4.0422   4.2333   4.4213   4.8581   4.9976
     5.6696   5.6988   6.3646   6.8184  10.1794  11.7696  16.5231

          k = 0.4545-0.0909 0.6364 (  2079 PWs)   bands (ev):

     3.2109   3.7757   3.8506   4.0691   4.1606   4.4674   4.7469   5.0722
     5.5637   5.6210   5.7714   8.2074   9.9840  12.3590  16.9410

          k = 0.3636 0.0000 0.5455 (  2078 PWs)   bands (ev):

     2.6393   3.7474   3.9121   4.0415   4.1627   4.4453   4.6520   5.0806
     5.4347   5.4636   5.7512   9.7617  10.2205  13.1762  17.4681

          k =-0.1818 0.7273 0.0000 (  2087 PWs)   bands (ev):

     3.2147   3.6348   3.9197   4.0279   4.2284   4.4536   4.5091   5.1741
     5.5201   5.5392   5.9242   9.4814  10.5104  10.9786  15.6801

          k = 0.7273-0.1818 0.9091 (  2091 PWs)   bands (ev):

     3.6537   3.6602   3.8512   4.0282   4.3048   4.4906   4.5799   5.0378
     5.6389   5.6794   6.1804   8.3397   9.5980  10.6822  15.8190

          k = 0.6364-0.0909 0.8182 (  2091 PWs)   bands (ev):

     3.6513   3.7833   3.8751   4.0162   4.2818   4.5899   4.7136   4.8960
     5.7005   5.7609   6.7744   7.3112   8.8679  10.9417  16.0267

          k = 0.5455 0.0000 0.7273 (  2093 PWs)   bands (ev):

     3.5576   3.8003   3.8274   4.0379   4.2079   4.5973   4.7357   4.9437
     5.7140   5.7260   6.1607   8.0451   8.6614  11.5379  16.4255

          k = 0.8182-0.0909 1.0000 (  2091 PWs)   bands (ev):

     3.6745   3.7825   3.9386   4.0251   4.2302   4.4584   4.7149   4.9562
     5.6719   5.6723   6.5228   7.8381  10.0637  10.1615  15.4894

          k = 0.7273 0.0000 0.9091 (  2089 PWs)   bands (ev):

     3.6748   3.7589   3.9898   4.0082   4.3292   4.5188   4.7690   4.8284
     5.7018   5.7481   7.1652   7.2288   8.9522  10.3631  15.6825

          k = 0.6364-0.2727 1.0000 (  2084 PWs)   bands (ev):

     3.3901   3.6986   3.8457   4.0579   4.3218   4.4934   4.5373   5.0871
     5.6094   5.6315   5.9217   8.8055   9.4827  11.1079  17.5112

          k = 0.5455-0.1818 0.9091 (  2089 PWs)   bands (ev):

     3.6587   3.7092   3.8425   4.0545   4.3462   4.5041   4.6925   4.9418
     5.7046   5.7398   6.4317   7.6211   9.2854  10.5118  17.5342

          k = 0.6364-0.0909 1.0000 (  2100 PWs)   bands (ev):

     3.6878   3.7140   3.9321   4.0402   4.4557   4.4670   4.6601   4.8812
     5.7328   5.7379   6.7213   7.8589   9.1710   9.6036  17.4463

          k = 0.5455 0.0000 0.9091 (  2102 PWs)   bands (ev):

     3.6760   3.7200   3.9549   4.0337   4.4098   4.5982   4.6860   4.7982
     5.7448   5.7740   7.0617   7.5740   8.6278   9.7456  17.6533

     the Fermi energy is     6.8094 ev

!    total energy              =    -426.03828060 Ry
     Harris-Foulkes estimate   =    -426.03828067 Ry
     estimated scf accuracy    <       0.00000008 Ry

     total all-electron energy =     -6619.797817 Ry

     The total energy is the sum of the following terms:

     one-electron contribution =    -116.83025089 Ry
     hartree contribution      =      57.87179167 Ry
     xc contribution           =     -73.47129249 Ry
     ewald contribution        =    -127.80442421 Ry
     one-center paw contrib.   =    -165.80400224 Ry
     smearing contrib. (-TS)   =      -0.00010244 Ry

     convergence has been achieved in  15 iterations

     Writing output data file Cu.save

     init_run     :      2.66s CPU      2.76s WALL (       1 calls)
     electrons    :     72.94s CPU     75.00s WALL (       1 calls)

     Called by init_run:
     wfcinit      :      1.60s CPU      1.66s WALL (       1 calls)
     potinit      :      0.36s CPU      0.38s WALL (       1 calls)

     Called by electrons:
     c_bands      :     53.56s CPU     54.99s WALL (      16 calls)
     sum_band     :     11.03s CPU     11.32s WALL (      16 calls)
     v_of_rho     :      0.35s CPU      0.36s WALL (      16 calls)
     newd         :      0.81s CPU      0.82s WALL (      16 calls)
     mix_rho      :      2.04s CPU      2.11s WALL (      16 calls)

     Called by c_bands:
     init_us_2    :      1.45s CPU      1.47s WALL (    1848 calls)
     cegterg      :     49.80s CPU     51.08s WALL (     896 calls)

     Called by *egterg:
     h_psi        :     42.50s CPU     43.60s WALL (    2533 calls)
     s_psi        :      1.30s CPU      1.30s WALL (    2533 calls)
     g_psi        :      0.35s CPU      0.36s WALL (    1581 calls)
     cdiaghg      :      2.63s CPU      2.67s WALL (    2421 calls)

     Called by h_psi:
     add_vuspsi   :      1.28s CPU      1.30s WALL (    2533 calls)

     General routines
     calbec       :      2.16s CPU      2.15s WALL (    3429 calls)
     fft          :      0.17s CPU      0.18s WALL (     210 calls)
     fftw         :     43.38s CPU     44.38s WALL (   78190 calls)
     davcio       :      0.24s CPU      0.24s WALL (    2744 calls)

     Parallel routines
     fft_scatter  :      8.84s CPU      8.57s WALL (   78400 calls)

     PAW routines
     PAW_pot      :      5.42s CPU      5.67s WALL (      16 calls)
     PAW_ddot     :      1.98s CPU      2.05s WALL (     392 calls)
     PAW_symme    :      0.03s CPU      0.03s WALL (      32 calls)

     PWSCF        :  1m16.72s CPU     1m18.93s WALL


   This run was terminated on:  20:25: 6  11Jul2015            

=------------------------------------------------------------------------------=
   JOB DONE.
=------------------------------------------------------------------------------=
