
     Program PWSCF v.5.0.2 (svn rev. 9656) starts on 26Jul2015 at  2:40:13 

     This program is part of the open-source Quantum ESPRESSO suite
     for quantum simulation of materials; please cite
         "P. Giannozzi et al., J. Phys.:Condens. Matter 21 395502 (2009);
          URL http://www.quantum-espresso.org", 
     in publications or presentations arising from this work. More details at
     http://www.quantum-espresso.org/quote.php

     Parallel version (MPI), running on     4 processors
     R & G space division:  proc/nbgrp/npool/nimage =       4

     Current dimensions of program PWSCF are:
     Max number of different atomic species (ntypx) = 10
     Max number of k-points (npk) =  40000
     Max angular momentum in pseudopotentials (lmaxx) =  3
     Waiting for input...
     Reading input from standard input
               file C.pbe-rrkjus.UPF: wavefunction(s)  2S 2P renormalized

     Subspace diagonalization in iterative solution of the eigenvalue problem:
     a serial algorithm will be used


     Parallelization info
     --------------------
     sticks:   dense  smooth     PW     G-vecs:    dense   smooth      PW
     Min         211     105     31                58589    20701    3596
     Max         212     106     32                58614    20746    3627
     Sum         847     421    127               234415    82857   14429



     bravais-lattice index     =            0
     lattice parameter (alat)  =       4.6500  a.u.
     unit-cell volume          =    1044.8904 (a.u.)^3
     number of atoms/cell      =            2
     number of atomic types    =            1
     number of electrons       =         8.00
     number of Kohn-Sham states=            8
     kinetic-energy cutoff     =      70.0000  Ry
     charge density cutoff     =     560.0000  Ry
     convergence threshold     =      1.0E-08
     mixing beta               =       0.7000
     number of iterations used =            8  plain     mixing
     Exchange-correlation      =  SLA  PW   PBE  PBE ( 1 4 3 4 0)
     EXX-fraction              =        0.00

     celldm(1)=   4.650000  celldm(2)=   0.000000  celldm(3)=   0.000000
     celldm(4)=   0.000000  celldm(5)=   0.000000  celldm(6)=   0.000000

     crystal axes: (cart. coord. in units of alat)
               a(1) = (   1.000000   0.000000   0.000000 )  
               a(2) = (   0.500000   0.866025   0.000000 )  
               a(3) = (   0.000000   0.000000  12.000000 )  

     reciprocal axes: (cart. coord. in units 2 pi/alat)
               b(1) = (  1.000000 -0.577350  0.000000 )  
               b(2) = (  0.000000  1.154701  0.000000 )  
               b(3) = (  0.000000  0.000000  0.083333 )  


     PseudoPot. # 1 for C  read from file:
     ./C.pbe-rrkjus.UPF
     MD5 check sum: 00fb224312de0c5b6853bd333518df6f
     Pseudo is Ultrasoft, Zval =  4.0
     Generated by new atomic code, or converted to UPF format
     Using radial grid of  627 points,  4 beta functions with: 
                l(1) =   0
                l(2) =   0
                l(3) =   1
                l(4) =   1
     Q(r) pseudized with 0 coefficients 


     atomic species   valence    mass     pseudopotential
        C              4.00    12.00000     C ( 1.00)

     24 Sym. Ops., with inversion, found (12 have fractional translation)



   Cartesian axes

     site n.     atom                  positions (alat units)
         1           C   tau(   1) = (   0.0000000   0.0000000   0.0000000  )
         2           C   tau(   2) = (   1.0000000   0.5773503   0.0000000  )

     number of k points=    30  gaussian smearing, width (Ry)=  0.0010
                       cart. coord. in units 2pi/alat
        k(    1) = (   0.0000000   0.0000000   0.0000000), wk =   0.0078125
        k(    2) = (   0.0000000   0.0721688   0.0000000), wk =   0.0468750
        k(    3) = (   0.0000000   0.1443376   0.0000000), wk =   0.0468750
        k(    4) = (   0.0000000   0.2165064   0.0000000), wk =   0.0468750
        k(    5) = (   0.0000000   0.2886751   0.0000000), wk =   0.0468750
        k(    6) = (   0.0000000   0.3608439   0.0000000), wk =   0.0468750
        k(    7) = (   0.0000000   0.4330127   0.0000000), wk =   0.0468750
        k(    8) = (   0.0000000   0.5051815   0.0000000), wk =   0.0468750
        k(    9) = (   0.0000000  -0.5773503   0.0000000), wk =   0.0234375
        k(   10) = (   0.0625000   0.1082532   0.0000000), wk =   0.0468750
        k(   11) = (   0.0625000   0.1804220   0.0000000), wk =   0.0937500
        k(   12) = (   0.0625000   0.2525907   0.0000000), wk =   0.0937500
        k(   13) = (   0.0625000   0.3247595   0.0000000), wk =   0.0937500
        k(   14) = (   0.0625000   0.3969283   0.0000000), wk =   0.0937500
        k(   15) = (   0.0625000   0.4690971   0.0000000), wk =   0.0937500
        k(   16) = (   0.0625000  -0.6134347   0.0000000), wk =   0.0937500
        k(   17) = (   0.1250000   0.2165064   0.0000000), wk =   0.0468750
        k(   18) = (   0.1250000   0.2886751   0.0000000), wk =   0.0937500
        k(   19) = (   0.1250000   0.3608439   0.0000000), wk =   0.0937500
        k(   20) = (   0.1250000   0.4330127   0.0000000), wk =   0.0937500
        k(   21) = (   0.1250000  -0.6495191   0.0000000), wk =   0.0937500
        k(   22) = (   0.1250000  -0.5773503   0.0000000), wk =   0.0468750
        k(   23) = (   0.1875000   0.3247595   0.0000000), wk =   0.0468750
        k(   24) = (   0.1875000   0.3969283   0.0000000), wk =   0.0937500
        k(   25) = (   0.1875000  -0.6856034   0.0000000), wk =   0.0937500
        k(   26) = (   0.1875000  -0.6134347   0.0000000), wk =   0.0937500
        k(   27) = (   0.2500000  -0.7216878   0.0000000), wk =   0.0468750
        k(   28) = (   0.2500000  -0.6495191   0.0000000), wk =   0.0937500
        k(   29) = (   0.2500000  -0.5773503   0.0000000), wk =   0.0468750
        k(   30) = (   0.3125000  -0.6134347   0.0000000), wk =   0.0468750

     Dense  grid:   234415 G-vectors     FFT dimensions: (  36,  36, 432)

     Smooth grid:    82857 G-vectors     FFT dimensions: (  25,  25, 300)

     Largest allocated arrays     est. size (Mb)     dimensions
        Kohn-Sham Wavefunctions         0.33 Mb     (   2716,    8)
        NL pseudopotentials             0.66 Mb     (   2716,   16)
        Each V/rho on FFT grid          2.14 Mb     ( 139968)
        Each G-vector array             0.45 Mb     (  58604)
        G-vector shells                 0.13 Mb     (  17557)
     Largest temporary arrays     est. size (Mb)     dimensions
        Auxiliary wavefunctions         1.33 Mb     (   2716,   32)
        Each subspace H/S matrix        0.02 Mb     (  32,  32)
        Each <psi_i|beta_j> matrix      0.00 Mb     (     16,    8)
        Arrays for rho mixing          17.09 Mb     ( 139968,   8)

     Initial potential from superposition of free atoms

     starting charge    7.99989, renormalised to    8.00000

     negative rho (up, down):  0.254E-04 0.000E+00
     Starting wfc are    8 randomized atomic wfcs

     total cpu time spent up to now is        6.3 secs

     per-process dynamical memory:    30.6 Mb

     Self-consistent Calculation

     iteration #  1     ecut=    70.00 Ry     beta=0.70
     Davidson diagonalization with overlap
     ethr =  1.00E-02,  avg # of iterations =  5.1

     negative rho (up, down):  0.175E-04 0.000E+00

     total cpu time spent up to now is       22.0 secs

     total energy              =     -22.75970883 Ry
     Harris-Foulkes estimate   =     -22.88416967 Ry
     estimated scf accuracy    <       0.20656316 Ry

     iteration #  2     ecut=    70.00 Ry     beta=0.70
     Davidson diagonalization with overlap
     ethr =  2.58E-03,  avg # of iterations =  4.1

     negative rho (up, down):  0.169E-04 0.000E+00

     total cpu time spent up to now is       34.7 secs

     total energy              =     -22.79084223 Ry
     Harris-Foulkes estimate   =     -22.79097991 Ry
     estimated scf accuracy    <       0.00250878 Ry

     iteration #  3     ecut=    70.00 Ry     beta=0.70
     Davidson diagonalization with overlap
     ethr =  3.14E-05,  avg # of iterations = 11.2

     negative rho (up, down):  0.186E-04 0.000E+00

     total cpu time spent up to now is       54.0 secs

     total energy              =     -22.79119579 Ry
     Harris-Foulkes estimate   =     -22.79116543 Ry
     estimated scf accuracy    <       0.00013806 Ry

     iteration #  4     ecut=    70.00 Ry     beta=0.70
     Davidson diagonalization with overlap
     ethr =  1.73E-06,  avg # of iterations =  4.5

     negative rho (up, down):  0.187E-04 0.000E+00

     total cpu time spent up to now is       66.8 secs

     total energy              =     -22.79120153 Ry
     Harris-Foulkes estimate   =     -22.79120069 Ry
     estimated scf accuracy    <       0.00000091 Ry

     iteration #  5     ecut=    70.00 Ry     beta=0.70
     Davidson diagonalization with overlap
     ethr =  1.13E-08,  avg # of iterations =  2.5

     negative rho (up, down):  0.187E-04 0.000E+00

     total cpu time spent up to now is       78.8 secs

     total energy              =     -22.79120190 Ry
     Harris-Foulkes estimate   =     -22.79120189 Ry
     estimated scf accuracy    <       0.00000003 Ry

     iteration #  6     ecut=    70.00 Ry     beta=0.70
     Davidson diagonalization with overlap
     ethr =  3.19E-10,  avg # of iterations =  2.0

     negative rho (up, down):  0.186E-04 0.000E+00

     total cpu time spent up to now is       89.5 secs

     End of self-consistent calculation

          k = 0.0000 0.0000 0.0000 ( 10361 PWs)   bands (ev):

   -22.4918 -10.6020  -6.0250  -6.0250   0.3035   1.0417   1.2090   1.5614

          k = 0.0000 0.0722 0.0000 ( 10357 PWs)   bands (ev):

   -22.3993 -10.4913  -6.3974  -6.2217   0.4293   1.1696   1.3383   1.6900

          k = 0.0000 0.1443 0.0000 ( 10303 PWs)   bands (ev):

   -22.1226 -10.1606  -7.4007  -6.7295   0.8066   1.5530   1.7262   2.0757

          k = 0.0000 0.2165 0.0000 ( 10295 PWs)   bands (ev):

   -21.6632  -9.6154  -8.8028  -7.3826   1.4352   2.1905   2.3726   2.7182

          k = 0.0000 0.2887 0.0000 ( 10339 PWs)   bands (ev):

   -21.0244 -10.4001  -8.8667  -8.0403   2.3134   3.0722   3.2776   3.6096

          k = 0.0000 0.3608 0.0000 ( 10311 PWs)   bands (ev):

   -20.2116 -12.0547  -8.6130  -7.9370   2.5522   3.4364   4.2503   4.4406

          k = 0.0000 0.4330 0.0000 ( 10332 PWs)   bands (ev):

   -19.2348 -13.6767  -9.0490  -6.8787   0.8530   4.6104   4.8968   5.6366

          k = 0.0000 0.5052 0.0000 ( 10352 PWs)   bands (ev):

   -18.1229 -15.1914  -9.3201  -5.8437  -0.5992   4.5449   6.4381   7.2682

          k = 0.0000-0.5774 0.0000 ( 10340 PWs)   bands (ev):

   -17.2299 -16.2211  -9.4119  -5.3193  -1.2673   4.5013   8.1869   8.3398

          k = 0.0625 0.1083 0.0000 ( 10305 PWs)   bands (ev):

   -22.2147 -10.2706  -7.0442  -6.6154   0.6809   1.4252   1.5969   1.9472

          k = 0.0625 0.1804 0.0000 ( 10280 PWs)   bands (ev):

   -21.8467  -9.8324  -8.1726  -7.2716   1.1841   1.9359   2.1141   2.4613

          k = 0.0625 0.2526 0.0000 ( 10289 PWs)   bands (ev):

   -21.2976  -9.6199  -9.1847  -7.9808   1.9380   2.6987   2.8898   3.2311

          k = 0.0625 0.3248 0.0000 ( 10333 PWs)   bands (ev):

   -20.5718 -11.2165  -8.6259  -8.3430   2.9402   3.3118   3.7645   3.9240

          k = 0.0625 0.3969 0.0000 ( 10349 PWs)   bands (ev):

   -19.6765 -12.8399  -9.1455  -7.3403   1.6414   4.1823   4.9990   5.1873

          k = 0.0625 0.4691 0.0000 ( 10356 PWs)   bands (ev):

   -18.6275 -14.4050  -9.5063  -6.2614   0.0461   4.9991   5.7093   6.5069

          k = 0.0625-0.6134 0.0000 ( 10357 PWs)   bands (ev):

   -17.5016 -15.7975  -9.6906  -5.3834  -1.1049   4.9223   7.4107   8.2315

          k = 0.1250 0.2165 0.0000 ( 10258 PWs)   bands (ev):

   -21.3889  -9.2913  -9.1968  -8.1349   1.8130   2.5728   2.7605   3.1035

          k = 0.1250 0.2887 0.0000 ( 10313 PWs)   bands (ev):

   -20.7528 -10.4936  -8.9830  -8.5482   2.6918   3.4548   3.6655   3.8502

          k = 0.1250 0.3608 0.0000 ( 10360 PWs)   bands (ev):

   -19.9442 -11.9823  -9.6526  -7.6246   2.2676   3.8170   4.6044   4.8290

          k = 0.1250 0.4330 0.0000 ( 10347 PWs)   bands (ev):

   -18.9739 -13.5174 -10.1312  -6.5694   0.6818   5.1792   5.9802   6.2109

          k = 0.1250-0.6495 0.0000 ( 10379 PWs)   bands (ev):

   -17.8724 -14.9842 -10.4196  -5.5246  -0.7094   6.0637   6.8061   7.5592

          k = 0.1250-0.5774 0.0000 ( 10364 PWs)   bands (ev):

   -16.9931 -15.9893 -10.5161  -4.9813  -1.3730   6.0266   8.5074   8.6850

          k = 0.1875 0.3248 0.0000 ( 10320 PWs)   bands (ev):

   -20.0338 -11.4752 -10.0637  -7.7206   2.5190   3.6935   4.4676   4.6998

          k = 0.1875 0.3969 0.0000 ( 10330 PWs)   bands (ev):

   -19.1493 -12.6977 -10.8718  -6.7312   1.0992   4.9376   5.7049   5.9925

          k = 0.1875-0.6856 0.0000 ( 10329 PWs)   bands (ev):

   -18.1175 -14.0721 -11.3498  -5.6509  -0.2995   6.4110   7.1148   7.5425

          k = 0.1875-0.6134 0.0000 ( 10342 PWs)   bands (ev):

   -17.0180 -15.3737 -11.5732  -4.7279  -1.3934   7.5888   8.1148   8.3281

          k = 0.2500-0.7217 0.0000 ( 10336 PWs)   bands (ev):

   -18.2014 -13.4911 -11.9501  -5.6997  -0.1226   6.2906   6.9520   7.4141

          k = 0.2500-0.6495 0.0000 ( 10344 PWs)   bands (ev):

   -17.1352 -14.5415 -12.5585  -4.6258  -1.3100   7.8435   7.8558   9.0924

          k = 0.2500-0.5774 0.0000 ( 10342 PWs)   bands (ev):

   -16.2843 -15.4225 -12.7318  -3.9762  -1.9978   7.9916   9.1943   9.3684

          k = 0.3125-0.6134 0.0000 ( 10360 PWs)   bands (ev):

   -16.1063 -15.1107 -13.3890  -3.5726  -2.3344   7.7464   9.3372  10.0898

     the Fermi energy is    -3.1414 ev

!    total energy              =     -22.79120190 Ry
     Harris-Foulkes estimate   =     -22.79120190 Ry
     estimated scf accuracy    <          6.3E-10 Ry

     The total energy is the sum of the following terms:

     one-electron contribution =    -353.76077207 Ry
     hartree contribution      =     177.88996751 Ry
     xc contribution           =      -7.02463877 Ry
     ewald contribution        =     160.10424143 Ry
     smearing contrib. (-TS)   =      -0.00000000 Ry

     convergence has been achieved in   6 iterations

     Writing output data file graphene.save

     init_run     :      5.93s CPU      6.26s WALL (       1 calls)
     electrons    :     76.54s CPU     83.19s WALL (       1 calls)

     Called by init_run:
     wfcinit      :      3.06s CPU      3.21s WALL (       1 calls)
     potinit      :      1.27s CPU      1.33s WALL (       1 calls)

     Called by electrons:
     c_bands      :     56.86s CPU     60.94s WALL (       6 calls)
     sum_band     :     13.47s CPU     15.30s WALL (       6 calls)
     v_of_rho     :      2.67s CPU      2.97s WALL (       7 calls)
     newd         :      3.31s CPU      3.69s WALL (       7 calls)
     mix_rho      :      0.41s CPU      0.44s WALL (       6 calls)

     Called by c_bands:
     init_us_2    :      0.91s CPU      1.09s WALL (     390 calls)
     cegterg      :     55.57s CPU     59.43s WALL (     180 calls)

     Called by *egterg:
     h_psi        :     51.34s CPU     54.97s WALL (    1096 calls)
     s_psi        :      0.91s CPU      0.90s WALL (    1096 calls)
     g_psi        :      0.27s CPU      0.29s WALL (     886 calls)
     cdiaghg      :      0.49s CPU      0.49s WALL (    1066 calls)

     Called by h_psi:
     add_vuspsi   :      0.91s CPU      0.96s WALL (    1096 calls)

     General routines
     calbec       :      1.61s CPU      1.70s WALL (    1276 calls)
     fft          :      2.67s CPU      3.02s WALL (     107 calls)
     ffts         :      0.08s CPU      0.09s WALL (      13 calls)
     fftw         :     35.70s CPU     39.54s WALL (   10968 calls)
     interpolate  :      0.53s CPU      0.54s WALL (      13 calls)
     davcio       :      0.31s CPU      0.40s WALL (     570 calls)

     Parallel routines
     fft_scatter  :     22.71s CPU     26.22s WALL (   11088 calls)

     PWSCF        :  1m22.85s CPU     1m29.85s WALL


   This run was terminated on:   2:41:43  26Jul2015            

=------------------------------------------------------------------------------=
   JOB DONE.
=------------------------------------------------------------------------------=
