
     Program PWSCF v.5.0.2 (svn rev. 9656) starts on 26Jul2015 at  1:29:56 

     This program is part of the open-source Quantum ESPRESSO suite
     for quantum simulation of materials; please cite
         "P. Giannozzi et al., J. Phys.:Condens. Matter 21 395502 (2009);
          URL http://www.quantum-espresso.org", 
     in publications or presentations arising from this work. More details at
     http://www.quantum-espresso.org/quote.php

     Parallel version (MPI), running on     4 processors
     R & G space division:  proc/nbgrp/npool/nimage =       4

     Current dimensions of program PWSCF are:
     Max number of different atomic species (ntypx) = 10
     Max number of k-points (npk) =  40000
     Max angular momentum in pseudopotentials (lmaxx) =  3
     Waiting for input...
     Reading input from standard input
               file C.pbe-rrkjus.UPF: wavefunction(s)  2S 2P renormalized

     Subspace diagonalization in iterative solution of the eigenvalue problem:
     a serial algorithm will be used


     Parallelization info
     --------------------
     sticks:   dense  smooth     PW     G-vecs:    dense   smooth      PW
     Min         205     105     30                57293    20327    3482
     Max         206     106     31                57326    20352    3541
     Sum         823     421    121               229263    81343   14001



     bravais-lattice index     =            0
     lattice parameter (alat)  =       4.6200  a.u.
     unit-cell volume          =    1024.7969 (a.u.)^3
     number of atoms/cell      =            2
     number of atomic types    =            1
     number of electrons       =         8.00
     number of Kohn-Sham states=            8
     kinetic-energy cutoff     =      70.0000  Ry
     charge density cutoff     =     560.0000  Ry
     convergence threshold     =      1.0E-08
     mixing beta               =       0.7000
     number of iterations used =            8  plain     mixing
     Exchange-correlation      =  SLA  PW   PBE  PBE ( 1 4 3 4 0)
     EXX-fraction              =        0.00

     celldm(1)=   4.620000  celldm(2)=   0.000000  celldm(3)=   0.000000
     celldm(4)=   0.000000  celldm(5)=   0.000000  celldm(6)=   0.000000

     crystal axes: (cart. coord. in units of alat)
               a(1) = (   1.000000   0.000000   0.000000 )  
               a(2) = (   0.500000   0.866025   0.000000 )  
               a(3) = (   0.000000   0.000000  12.000000 )  

     reciprocal axes: (cart. coord. in units 2 pi/alat)
               b(1) = (  1.000000 -0.577350  0.000000 )  
               b(2) = (  0.000000  1.154701  0.000000 )  
               b(3) = (  0.000000  0.000000  0.083333 )  


     PseudoPot. # 1 for C  read from file:
     ./C.pbe-rrkjus.UPF
     MD5 check sum: 00fb224312de0c5b6853bd333518df6f
     Pseudo is Ultrasoft, Zval =  4.0
     Generated by new atomic code, or converted to UPF format
     Using radial grid of  627 points,  4 beta functions with: 
                l(1) =   0
                l(2) =   0
                l(3) =   1
                l(4) =   1
     Q(r) pseudized with 0 coefficients 


     atomic species   valence    mass     pseudopotential
        C              4.00    12.00000     C ( 1.00)

     24 Sym. Ops., with inversion, found (12 have fractional translation)



   Cartesian axes

     site n.     atom                  positions (alat units)
         1           C   tau(   1) = (   0.0000000   0.0000000   0.0000000  )
         2           C   tau(   2) = (   1.0000000   0.5773503   0.0000000  )

     number of k points=    14  gaussian smearing, width (Ry)=  0.0010
                       cart. coord. in units 2pi/alat
        k(    1) = (   0.0000000   0.0000000   0.0000000), wk =   0.0200000
        k(    2) = (   0.0000000   0.1154701   0.0000000), wk =   0.1200000
        k(    3) = (   0.0000000   0.2309401   0.0000000), wk =   0.1200000
        k(    4) = (   0.0000000   0.3464102   0.0000000), wk =   0.1200000
        k(    5) = (   0.0000000   0.4618802   0.0000000), wk =   0.1200000
        k(    6) = (   0.0000000  -0.5773503   0.0000000), wk =   0.0600000
        k(    7) = (   0.1000000   0.1732051   0.0000000), wk =   0.1200000
        k(    8) = (   0.1000000   0.2886751   0.0000000), wk =   0.2400000
        k(    9) = (   0.1000000   0.4041452   0.0000000), wk =   0.2400000
        k(   10) = (   0.1000000  -0.6350853   0.0000000), wk =   0.2400000
        k(   11) = (   0.2000000   0.3464102   0.0000000), wk =   0.1200000
        k(   12) = (   0.2000000  -0.6928203   0.0000000), wk =   0.2400000
        k(   13) = (   0.2000000  -0.5773503   0.0000000), wk =   0.1200000
        k(   14) = (   0.3000000  -0.6350853   0.0000000), wk =   0.1200000

     Dense  grid:   229263 G-vectors     FFT dimensions: (  36,  36, 432)

     Smooth grid:    81343 G-vectors     FFT dimensions: (  25,  25, 300)

     Largest allocated arrays     est. size (Mb)     dimensions
        Kohn-Sham Wavefunctions         0.32 Mb     (   2639,    8)
        NL pseudopotentials             0.64 Mb     (   2639,   16)
        Each V/rho on FFT grid          2.14 Mb     ( 139968)
        Each G-vector array             0.44 Mb     (  57318)
        G-vector shells                 0.13 Mb     (  16635)
     Largest temporary arrays     est. size (Mb)     dimensions
        Auxiliary wavefunctions         1.29 Mb     (   2639,   32)
        Each subspace H/S matrix        0.02 Mb     (  32,  32)
        Each <psi_i|beta_j> matrix      0.00 Mb     (     16,    8)
        Arrays for rho mixing          17.09 Mb     ( 139968,   8)

     Initial potential from superposition of free atoms

     starting charge    7.99989, renormalised to    8.00000

     negative rho (up, down):  0.242E-04 0.000E+00
     Starting wfc are    8 randomized atomic wfcs

     total cpu time spent up to now is        3.1 secs

     per-process dynamical memory:    26.0 Mb

     Self-consistent Calculation

     iteration #  1     ecut=    70.00 Ry     beta=0.70
     Davidson diagonalization with overlap
     ethr =  1.00E-02,  avg # of iterations =  5.1

     negative rho (up, down):  0.171E-04 0.000E+00

     total cpu time spent up to now is        8.1 secs

     total energy              =     -22.75759104 Ry
     Harris-Foulkes estimate   =     -22.88953369 Ry
     estimated scf accuracy    <       0.21765177 Ry

     iteration #  2     ecut=    70.00 Ry     beta=0.70
     Davidson diagonalization with overlap
     ethr =  2.72E-03,  avg # of iterations =  4.5

     negative rho (up, down):  0.164E-04 0.000E+00

     total cpu time spent up to now is       12.2 secs

     total energy              =     -22.79058440 Ry
     Harris-Foulkes estimate   =     -22.79072431 Ry
     estimated scf accuracy    <       0.00253449 Ry

     iteration #  3     ecut=    70.00 Ry     beta=0.70
     Davidson diagonalization with overlap
     ethr =  3.17E-05,  avg # of iterations = 11.1

     negative rho (up, down):  0.184E-04 0.000E+00

     total cpu time spent up to now is       18.4 secs

     total energy              =     -22.79093860 Ry
     Harris-Foulkes estimate   =     -22.79090725 Ry
     estimated scf accuracy    <       0.00014215 Ry

     iteration #  4     ecut=    70.00 Ry     beta=0.70
     Davidson diagonalization with overlap
     ethr =  1.78E-06,  avg # of iterations =  4.8

     negative rho (up, down):  0.186E-04 0.000E+00

     total cpu time spent up to now is       23.7 secs

     total energy              =     -22.79094397 Ry
     Harris-Foulkes estimate   =     -22.79094318 Ry
     estimated scf accuracy    <       0.00000087 Ry

     iteration #  5     ecut=    70.00 Ry     beta=0.70
     Davidson diagonalization with overlap
     ethr =  1.09E-08,  avg # of iterations =  2.4

     negative rho (up, down):  0.186E-04 0.000E+00

     total cpu time spent up to now is       30.2 secs

     total energy              =     -22.79094428 Ry
     Harris-Foulkes estimate   =     -22.79094427 Ry
     estimated scf accuracy    <       0.00000002 Ry

     iteration #  6     ecut=    70.00 Ry     beta=0.70
     Davidson diagonalization with overlap
     ethr =  3.03E-10,  avg # of iterations =  2.0

     negative rho (up, down):  0.185E-04 0.000E+00

     total cpu time spent up to now is       36.0 secs

     End of self-consistent calculation

          k = 0.0000 0.0000 0.0000 ( 10155 PWs)   bands (ev):

   -22.5734 -10.6589  -5.9435  -5.9435   0.3184   1.0604   1.2279   1.5861

          k = 0.0000 0.1155 0.0000 ( 10111 PWs)   bands (ev):

   -22.3342 -10.3714  -6.8635  -6.4276   0.6445   1.3920   1.5631   1.9197

          k = 0.0000 0.2309 0.0000 ( 10071 PWs)   bands (ev):

   -21.6205  -9.5203  -9.0571  -7.4648   1.6223   2.3843   2.5690   2.9191

          k = 0.0000 0.3464 0.0000 ( 10117 PWs)   bands (ev):

   -20.4448 -11.6964  -8.4730  -8.1523   3.0628   3.2453   4.0704   4.2451

          k = 0.0000 0.4619 0.0000 ( 10148 PWs)   bands (ev):

   -18.8392 -14.3036  -9.1545  -6.4327   0.3392   4.8619   5.5453   6.3510

          k = 0.0000-0.5774 0.0000 ( 10180 PWs)   bands (ev):

   -17.2223 -16.2717  -9.3919  -5.2827  -1.1837   4.7688   8.3084   8.4599

          k = 0.1000 0.1732 0.0000 ( 10086 PWs)   bands (ev):

   -21.8578  -9.8017  -8.2168  -7.3946   1.2970   2.0544   2.2338   2.5866

          k = 0.1000 0.2887 0.0000 ( 10090 PWs)   bands (ev):

   -20.9131 -10.3940  -8.6878  -8.6599   2.5999   3.3678   3.5749   3.9106

          k = 0.1000 0.4041 0.0000 ( 10144 PWs)   bands (ev):

   -19.5210 -12.9323  -9.5904  -7.1116   1.5366   4.5402   5.3526   5.5858

          k = 0.1000-0.6351 0.0000 ( 10148 PWs)   bands (ev):

   -17.7531 -15.3504 -10.0739  -5.4329  -0.7869   5.8117   7.1210   7.9157

          k = 0.2000 0.3464 0.0000 ( 10138 PWs)   bands (ev):

   -19.7516 -11.8653 -10.4552  -7.3487   2.1294   4.2226   5.0020   5.2512

          k = 0.2000-0.6928 0.0000 ( 10170 PWs)   bands (ev):

   -18.1759 -13.8873 -11.5366  -5.6417  -0.1194   6.4633   7.1607   7.5975

          k = 0.2000-0.5774 0.0000 ( 10178 PWs)   bands (ev):

   -16.6132 -15.6911 -11.8407  -4.4065  -1.5566   8.2169   8.5346   9.1178

          k = 0.3000-0.6351 0.0000 ( 10196 PWs)   bands (ev):

   -16.5150 -14.7998 -13.2252  -3.9216  -1.8425   7.9142   8.8867  10.3712

     the Fermi energy is    -1.9762 ev

!    total energy              =     -22.79094429 Ry
     Harris-Foulkes estimate   =     -22.79094429 Ry
     estimated scf accuracy    <          5.5E-10 Ry

     The total energy is the sum of the following terms:

     one-electron contribution =    -355.82047327 Ry
     hartree contribution      =     178.93828476 Ry
     xc contribution           =      -7.05263514 Ry
     ewald contribution        =     161.14387936 Ry
     smearing contrib. (-TS)   =      -0.00000000 Ry

     convergence has been achieved in   6 iterations

     Writing output data file graphene.save

     init_run     :      2.91s CPU      3.02s WALL (       1 calls)
     electrons    :     31.65s CPU     32.94s WALL (       1 calls)

     Called by init_run:
     wfcinit      :      0.88s CPU      0.92s WALL (       1 calls)
     potinit      :      0.89s CPU      0.92s WALL (       1 calls)

     Called by electrons:
     c_bands      :     19.68s CPU     20.35s WALL (       6 calls)
     sum_band     :      6.69s CPU      6.98s WALL (       6 calls)
     v_of_rho     :      2.27s CPU      2.45s WALL (       7 calls)
     newd         :      2.66s CPU      2.76s WALL (       7 calls)
     mix_rho      :      0.34s CPU      0.35s WALL (       6 calls)

     Called by c_bands:
     init_us_2    :      0.35s CPU      0.41s WALL (     182 calls)
     cegterg      :     19.25s CPU     19.81s WALL (      84 calls)

     Called by *egterg:
     h_psi        :     17.58s CPU     18.08s WALL (     516 calls)
     s_psi        :      0.31s CPU      0.30s WALL (     516 calls)
     g_psi        :      0.11s CPU      0.12s WALL (     418 calls)
     cdiaghg      :      0.20s CPU      0.20s WALL (     502 calls)

     Called by h_psi:
     add_vuspsi   :      0.30s CPU      0.31s WALL (     516 calls)

     General routines
     calbec       :      0.52s CPU      0.52s WALL (     600 calls)
     fft          :      2.27s CPU      2.44s WALL (     107 calls)
     ffts         :      0.07s CPU      0.08s WALL (      13 calls)
     fftw         :     12.55s CPU     13.00s WALL (    5138 calls)
     interpolate  :      0.44s CPU      0.46s WALL (      13 calls)
     davcio       :      0.11s CPU      0.14s WALL (     266 calls)

     Parallel routines
     fft_scatter  :      8.35s CPU      8.80s WALL (    5258 calls)

     PWSCF        :    34.79s CPU        36.22s WALL


   This run was terminated on:   1:30:32  26Jul2015            

=------------------------------------------------------------------------------=
   JOB DONE.
=------------------------------------------------------------------------------=
