
     Program PWSCF v.5.0.2 (svn rev. 9656) starts on 11Jul2015 at 20:25: 8 

     This program is part of the open-source Quantum ESPRESSO suite
     for quantum simulation of materials; please cite
         "P. Giannozzi et al., J. Phys.:Condens. Matter 21 395502 (2009);
          URL http://www.quantum-espresso.org", 
     in publications or presentations arising from this work. More details at
     http://www.quantum-espresso.org/quote.php

     Parallel version (MPI), running on     4 processors
     R & G space division:  proc/nbgrp/npool/nimage =       4

     Current dimensions of program PWSCF are:
     Max number of different atomic species (ntypx) = 10
     Max number of k-points (npk) =  40000
     Max angular momentum in pseudopotentials (lmaxx) =  3
     Waiting for input...
     Reading input from standard input
               file Cu.pbe.UPF: wavefunction(s)  4S 3D renormalized

     Subspace diagonalization in iterative solution of the eigenvalue problem:
     a serial algorithm will be used


     Parallelization info
     --------------------
     sticks:   dense  smooth     PW     G-vecs:    dense   smooth      PW
     Min         214     214     63                 4156     4156     684
     Max         217     217     64                 4157     4157     688
     Sum         859     859    253                16625    16625    2741



     bravais-lattice index     =            2
     lattice parameter (alat)  =      10.2000  a.u.
     unit-cell volume          =     265.3020 (a.u.)^3
     number of atoms/cell      =            2
     number of atomic types    =            1
     number of electrons       =        22.00
     number of Kohn-Sham states=           15
     kinetic-energy cutoff     =      60.0000  Ry
     charge density cutoff     =     240.0000  Ry
     convergence threshold     =      1.0E-07
     mixing beta               =       0.7000
     number of iterations used =            8  plain     mixing
     Exchange-correlation      =  SLA  PW   PBX  PBC ( 1 4 3 4 0)
     EXX-fraction              =        0.00

     celldm(1)=  10.200000  celldm(2)=   0.000000  celldm(3)=   0.000000
     celldm(4)=   0.000000  celldm(5)=   0.000000  celldm(6)=   0.000000

     crystal axes: (cart. coord. in units of alat)
               a(1) = (  -0.500000   0.000000   0.500000 )  
               a(2) = (   0.000000   0.500000   0.500000 )  
               a(3) = (  -0.500000   0.500000   0.000000 )  

     reciprocal axes: (cart. coord. in units 2 pi/alat)
               b(1) = ( -1.000000 -1.000000  1.000000 )  
               b(2) = (  1.000000  1.000000  1.000000 )  
               b(3) = ( -1.000000  1.000000 -1.000000 )  


     PseudoPot. # 1 for Cu read from file:
     ./Cu.pbe.UPF
     MD5 check sum: 0c51aa2b3b25e0d1c3270f17c0a46a12
     Pseudo is Projector augmented-wave + core cor, Zval = 11.0
     Generated using "atomic" code by A. Dal Corso  v.5.0.99 svn rev. 10869
     Shape of augmentation charge: BESSEL
     Using radial grid of 1199 points,  6 beta functions with: 
                l(1) =   0
                l(2) =   0
                l(3) =   1
                l(4) =   1
                l(5) =   2
                l(6) =   2
     Q(r) pseudized with 0 coefficients 


     atomic species   valence    mass     pseudopotential
        Cu            11.00    63.54600     Cu( 1.00)

     48 Sym. Ops., with inversion, found (24 have fractional translation)



   Cartesian axes

     site n.     atom                  positions (alat units)
         1           Cu  tau(   1) = (   0.0000000   0.0000000   0.0000000  )
         2           Cu  tau(   2) = (   0.2500000   0.2500000   0.2500000  )

     number of k points=    72  gaussian smearing, width (Ry)=  0.0030
                       cart. coord. in units 2pi/alat
        k(    1) = (   0.0000000   0.0000000   0.0000000), wk =   0.0011574
        k(    2) = (  -0.0833333   0.0833333  -0.0833333), wk =   0.0092593
        k(    3) = (  -0.1666667   0.1666667  -0.1666667), wk =   0.0092593
        k(    4) = (  -0.2500000   0.2500000  -0.2500000), wk =   0.0092593
        k(    5) = (  -0.3333333   0.3333333  -0.3333333), wk =   0.0092593
        k(    6) = (  -0.4166667   0.4166667  -0.4166667), wk =   0.0092593
        k(    7) = (   0.5000000  -0.5000000   0.5000000), wk =   0.0046296
        k(    8) = (   0.0000000   0.1666667   0.0000000), wk =   0.0069444
        k(    9) = (  -0.0833333   0.2500000  -0.0833333), wk =   0.0277778
        k(   10) = (  -0.1666667   0.3333333  -0.1666667), wk =   0.0277778
        k(   11) = (  -0.2500000   0.4166667  -0.2500000), wk =   0.0277778
        k(   12) = (  -0.3333333   0.5000000  -0.3333333), wk =   0.0277778
        k(   13) = (   0.5833333  -0.4166667   0.5833333), wk =   0.0277778
        k(   14) = (   0.5000000  -0.3333333   0.5000000), wk =   0.0277778
        k(   15) = (   0.4166667  -0.2500000   0.4166667), wk =   0.0277778
        k(   16) = (   0.3333333  -0.1666667   0.3333333), wk =   0.0277778
        k(   17) = (   0.2500000  -0.0833333   0.2500000), wk =   0.0277778
        k(   18) = (   0.1666667  -0.0000000   0.1666667), wk =   0.0138889
        k(   19) = (   0.0000000   0.3333333   0.0000000), wk =   0.0069444
        k(   20) = (  -0.0833333   0.4166667  -0.0833333), wk =   0.0277778
        k(   21) = (  -0.1666667   0.5000000  -0.1666667), wk =   0.0277778
        k(   22) = (  -0.2500000   0.5833333  -0.2500000), wk =   0.0277778
        k(   23) = (   0.6666667  -0.3333333   0.6666667), wk =   0.0277778
        k(   24) = (   0.5833333  -0.2500000   0.5833333), wk =   0.0277778
        k(   25) = (   0.5000000  -0.1666667   0.5000000), wk =   0.0277778
        k(   26) = (   0.4166667  -0.0833333   0.4166667), wk =   0.0277778
        k(   27) = (   0.3333333   0.0000000   0.3333333), wk =   0.0138889
        k(   28) = (   0.0000000   0.5000000   0.0000000), wk =   0.0069444
        k(   29) = (  -0.0833333   0.5833333  -0.0833333), wk =   0.0277778
        k(   30) = (  -0.1666667   0.6666667  -0.1666667), wk =   0.0277778
        k(   31) = (   0.7500000  -0.2500000   0.7500000), wk =   0.0277778
        k(   32) = (   0.6666667  -0.1666667   0.6666667), wk =   0.0277778
        k(   33) = (   0.5833333  -0.0833333   0.5833333), wk =   0.0277778
        k(   34) = (   0.5000000   0.0000000   0.5000000), wk =   0.0138889
        k(   35) = (   0.0000000   0.6666667   0.0000000), wk =   0.0069444
        k(   36) = (  -0.0833333   0.7500000  -0.0833333), wk =   0.0277778
        k(   37) = (   0.8333333  -0.1666667   0.8333333), wk =   0.0277778
        k(   38) = (   0.7500000  -0.0833333   0.7500000), wk =   0.0277778
        k(   39) = (   0.6666667  -0.0000000   0.6666667), wk =   0.0138889
        k(   40) = (   0.0000000   0.8333333   0.0000000), wk =   0.0069444
        k(   41) = (   0.9166667  -0.0833333   0.9166667), wk =   0.0277778
        k(   42) = (   0.8333333   0.0000000   0.8333333), wk =   0.0138889
        k(   43) = (   0.0000000  -1.0000000   0.0000000), wk =   0.0034722
        k(   44) = (  -0.1666667   0.3333333   0.0000000), wk =   0.0277778
        k(   45) = (  -0.2500000   0.4166667  -0.0833333), wk =   0.0555556
        k(   46) = (  -0.3333333   0.5000000  -0.1666667), wk =   0.0555556
        k(   47) = (   0.5833333  -0.4166667   0.7500000), wk =   0.0555556
        k(   48) = (   0.5000000  -0.3333333   0.6666667), wk =   0.0277778
        k(   49) = (  -0.1666667   0.5000000   0.0000000), wk =   0.0277778
        k(   50) = (  -0.2500000   0.5833333  -0.0833333), wk =   0.0555556
        k(   51) = (   0.6666667  -0.3333333   0.8333333), wk =   0.0555556
        k(   52) = (   0.5833333  -0.2500000   0.7500000), wk =   0.0555556
        k(   53) = (   0.5000000  -0.1666667   0.6666667), wk =   0.0555556
        k(   54) = (   0.4166667  -0.0833333   0.5833333), wk =   0.0555556
        k(   55) = (   0.3333333   0.0000000   0.5000000), wk =   0.0277778
        k(   56) = (  -0.1666667   0.6666667  -0.0000000), wk =   0.0277778
        k(   57) = (   0.7500000  -0.2500000   0.9166667), wk =   0.0555556
        k(   58) = (   0.6666667  -0.1666667   0.8333333), wk =   0.0555556
        k(   59) = (   0.5833333  -0.0833333   0.7500000), wk =   0.0555556
        k(   60) = (   0.5000000   0.0000000   0.6666667), wk =   0.0277778
        k(   61) = (   0.8333333  -0.1666667   1.0000000), wk =   0.0277778
        k(   62) = (   0.7500000  -0.0833333   0.9166667), wk =   0.0555556
        k(   63) = (   0.6666667   0.0000000   0.8333333), wk =   0.0277778
        k(   64) = (  -0.1666667  -1.0000000  -0.0000000), wk =   0.0138889
        k(   65) = (   0.6666667  -0.3333333   1.0000000), wk =   0.0277778
        k(   66) = (   0.5833333  -0.2500000   0.9166667), wk =   0.0555556
        k(   67) = (   0.5000000  -0.1666667   0.8333333), wk =   0.0277778
        k(   68) = (   0.6666667  -0.1666667   1.0000000), wk =   0.0277778
        k(   69) = (   0.5833333  -0.0833333   0.9166667), wk =   0.0555556
        k(   70) = (   0.5000000   0.0000000   0.8333333), wk =   0.0277778
        k(   71) = (  -0.3333333  -1.0000000   0.0000000), wk =   0.0138889
        k(   72) = (  -0.5000000  -1.0000000   0.0000000), wk =   0.0069444

     Dense  grid:    16625 G-vectors     FFT dimensions: (  36,  36,  36)

     Largest allocated arrays     est. size (Mb)     dimensions
        Kohn-Sham Wavefunctions         0.12 Mb     (    531,   15)
        NL pseudopotentials             0.29 Mb     (    531,   36)
        Each V/rho on FFT grid          0.18 Mb     (  11664)
        Each G-vector array             0.03 Mb     (   4157)
        G-vector shells                 0.00 Mb     (    212)
     Largest temporary arrays     est. size (Mb)     dimensions
        Auxiliary wavefunctions         0.49 Mb     (    531,   60)
        Each subspace H/S matrix        0.05 Mb     (  60,  60)
        Each <psi_i|beta_j> matrix      0.01 Mb     (     36,   15)
        Arrays for rho mixing           1.42 Mb     (  11664,   8)

     Check: negative/imaginary core charge=   -0.000021    0.000000

     Initial potential from superposition of free atoms

     starting charge   21.99954, renormalised to   22.00000
     Starting wfc are   18 randomized atomic wfcs
     Checking if some PAW data can be deallocated... 

     total cpu time spent up to now is        4.1 secs

     per-process dynamical memory:    12.0 Mb

     Self-consistent Calculation

     iteration #  1     ecut=    60.00 Ry     beta=0.70
     Davidson diagonalization with overlap
     ethr =  1.00E-02,  avg # of iterations =  3.7

     Threshold (ethr) on eigenvalues was too large:
     Diagonalizing with lowered threshold

     Davidson diagonalization with overlap
     ethr =  2.12E-05,  avg # of iterations =  4.5

     total cpu time spent up to now is       19.0 secs

     total energy              =    -426.03740411 Ry
     Harris-Foulkes estimate   =    -426.03798082 Ry
     estimated scf accuracy    <       0.00581285 Ry

     iteration #  2     ecut=    60.00 Ry     beta=0.70
     Davidson diagonalization with overlap
     ethr =  2.64E-05,  avg # of iterations =  2.1

     total cpu time spent up to now is       25.3 secs

     total energy              =    -426.03588111 Ry
     Harris-Foulkes estimate   =    -426.03981405 Ry
     estimated scf accuracy    <       0.00843730 Ry

     iteration #  3     ecut=    60.00 Ry     beta=0.70
     Davidson diagonalization with overlap
     ethr =  2.64E-05,  avg # of iterations =  2.2

     total cpu time spent up to now is       31.8 secs

     total energy              =    -426.03795316 Ry
     Harris-Foulkes estimate   =    -426.03873676 Ry
     estimated scf accuracy    <       0.00275039 Ry

     iteration #  4     ecut=    60.00 Ry     beta=0.70
     Davidson diagonalization with overlap
     ethr =  1.25E-05,  avg # of iterations =  1.1

     total cpu time spent up to now is       37.0 secs

     total energy              =    -426.03830327 Ry
     Harris-Foulkes estimate   =    -426.03830374 Ry
     estimated scf accuracy    <       0.00000363 Ry

     iteration #  5     ecut=    60.00 Ry     beta=0.70
     Davidson diagonalization with overlap
     ethr =  1.65E-08,  avg # of iterations =  3.9

     total cpu time spent up to now is       45.7 secs

     total energy              =    -426.03832932 Ry
     Harris-Foulkes estimate   =    -426.03832969 Ry
     estimated scf accuracy    <       0.00000268 Ry

     iteration #  6     ecut=    60.00 Ry     beta=0.70
     Davidson diagonalization with overlap
     ethr =  1.22E-08,  avg # of iterations =  1.0

     total cpu time spent up to now is       50.9 secs

     total energy              =    -426.03832950 Ry
     Harris-Foulkes estimate   =    -426.03832947 Ry
     estimated scf accuracy    <       0.00000065 Ry

     iteration #  7     ecut=    60.00 Ry     beta=0.70
     Davidson diagonalization with overlap
     ethr =  2.95E-09,  avg # of iterations =  1.0

     total cpu time spent up to now is       56.1 secs

     total energy              =    -426.03832945 Ry
     Harris-Foulkes estimate   =    -426.03832952 Ry
     estimated scf accuracy    <       0.00000088 Ry

     iteration #  8     ecut=    60.00 Ry     beta=0.70
     Davidson diagonalization with overlap
     ethr =  2.95E-09,  avg # of iterations =  1.0

     total cpu time spent up to now is       61.4 secs

     total energy              =    -426.03832944 Ry
     Harris-Foulkes estimate   =    -426.03832946 Ry
     estimated scf accuracy    <       0.00000045 Ry

     iteration #  9     ecut=    60.00 Ry     beta=0.70
     Davidson diagonalization with overlap
     ethr =  2.06E-09,  avg # of iterations =  1.0

     total cpu time spent up to now is       66.7 secs

     total energy              =    -426.03832938 Ry
     Harris-Foulkes estimate   =    -426.03832945 Ry
     estimated scf accuracy    <       0.00000033 Ry

     iteration # 10     ecut=    60.00 Ry     beta=0.70
     Davidson diagonalization with overlap
     ethr =  1.48E-09,  avg # of iterations =  1.0

     total cpu time spent up to now is       71.9 secs

     End of self-consistent calculation

          k = 0.0000 0.0000 0.0000 (  2085 PWs)   bands (ev):

     0.6645   3.9691   3.9691   3.9691   3.9923   3.9923   5.0244   5.0244
     5.0244   5.6477   5.6477  16.3787  16.3787  16.3787  17.3229

          k =-0.0833 0.0833-0.0833 (  2079 PWs)   bands (ev):

     0.7711   3.9087   3.9087   3.9712   4.0698   4.0698   5.0024   5.0207
     5.0207   5.6482   5.6482  14.7244  15.8675  15.8675  17.7998

          k =-0.1667 0.1667-0.1667 (  2088 PWs)   bands (ev):

     1.0851   3.8677   3.8677   3.9800   4.1517   4.1517   4.9442   5.0201
     5.0201   5.6470   5.6470  12.5944  15.1713  15.1713  17.6839

          k =-0.2500 0.2500-0.2500 (  2067 PWs)   bands (ev):

     1.5849   3.8610   3.8610   3.9994   4.1965   4.1965   4.8781   5.0466
     5.0466   5.6376   5.6376  10.5872  14.5804  14.5804  17.5486

          k =-0.3333 0.3333-0.3333 (  2090 PWs)   bands (ev):

     2.2111   3.8872   3.8872   4.0247   4.1856   4.1856   4.8723   5.1111
     5.1111   5.6151   5.6151   8.7875  14.1362  14.1362  17.5205

          k =-0.4167 0.4167-0.4167 (  2078 PWs)   bands (ev):

     2.8042   3.9374   3.9374   4.0293   4.1335   4.1335   5.0753   5.1883
     5.1883   5.5834   5.5834   7.2774  13.8597  13.8597  17.6067

          k = 0.5000-0.5000 0.5000 (  2060 PWs)   bands (ev):

     3.0636   3.9752   3.9752   4.0163   4.0928   4.0928   5.2254   5.2254
     5.4268   5.5654   5.5654   6.4399  13.7657  13.7657  17.7121

          k = 0.0000 0.1667 0.0000 (  2081 PWs)   bands (ev):

     0.8068   3.8506   3.9753   3.9753   4.0232   4.1173   4.9375   5.0497
     5.0497   5.6224   5.6711  15.1116  15.1116  15.6497  16.7198

          k =-0.0833 0.2500-0.0833 (  2076 PWs)   bands (ev):

     1.0523   3.7995   3.9475   3.9816   4.0970   4.1925   4.8540   5.0627
     5.0761   5.5982   5.6875  13.3121  14.4005  15.2675  16.9478

          k =-0.1667 0.3333-0.1667 (  2066 PWs)   bands (ev):

     1.4922   3.7786   3.9356   3.9925   4.1546   4.2549   4.7846   5.0661
     5.1164   5.5743   5.6944  11.2842  13.8399  14.6426  17.1882

          k =-0.2500 0.4167-0.2500 (  2077 PWs)   bands (ev):

     2.0829   3.7910   3.9507   4.0093   4.1625   4.2678   4.7685   5.1022
     5.1773   5.5502   5.6863   9.4180  13.4703  14.0120  16.9428

          k =-0.3333 0.5000-0.3333 (  2076 PWs)   bands (ev):

     2.7062   3.8284   3.9775   4.0196   4.1367   4.2268   4.8725   5.2258
     5.2268   5.5396   5.6586   7.7944  13.3171  13.4652  16.7773

          k = 0.5833-0.4167 0.5833 (  2079 PWs)   bands (ev):

     3.1022   3.8696   3.9645   4.0246   4.1436   4.1588   5.0605   5.2103
     5.5484   5.5692   5.6352   6.5841  13.0641  13.3925  16.8085

          k = 0.5000-0.3333 0.5000 (  2078 PWs)   bands (ev):

     3.0133   3.9039   3.9114   4.0582   4.0946   4.2016   5.0847   5.1321
     5.4436   5.5562   5.6223   6.9179  12.8530  13.6910  17.0440

          k = 0.4167-0.2500 0.4167 (  2076 PWs)   bands (ev):

     2.5051   3.8441   3.9349   4.0260   4.1259   4.2589   4.8949   5.0381
     5.2769   5.5403   5.6655   8.3092  12.8537  14.1867  17.4743

          k = 0.3333-0.1667 0.3333 (  2069 PWs)   bands (ev):

     1.8722   3.8082   3.9226   3.9976   4.1557   4.2762   4.8375   4.9725
     5.1977   5.5614   5.6870  10.0237  13.0665  14.8340  18.0256

          k = 0.2500-0.0833 0.2500 (  2073 PWs)   bands (ev):

     1.3245   3.8063   3.9123   3.9849   4.1407   4.2350   4.8773   4.9600
     5.1320   5.5911   5.6875  11.9556  13.4766  15.5606  18.1073

          k = 0.1667-0.0000 0.1667 (  2077 PWs)   bands (ev):

     0.9470   3.8413   3.9185   3.9792   4.0902   4.1549   4.9445   4.9857
     5.0771   5.6208   5.6722  13.9367  14.1407  16.1446  17.6245

          k = 0.0000 0.3333 0.0000 (  2061 PWs)   bands (ev):

     1.2283   3.7365   3.9894   3.9894   4.1134   4.2527   4.7213   5.1286
     5.1286   5.5478   5.7144  13.6557  13.6557  14.1896  15.8684

          k =-0.0833 0.4167-0.0833 (  2064 PWs)   bands (ev):

     1.6023   3.7011   3.9889   3.9949   4.1778   4.3176   4.6082   5.1719
     5.1860   5.5019   5.7325  12.0173  13.0592  13.7055  15.9976

          k =-0.1667 0.5000-0.1667 (  2078 PWs)   bands (ev):

     2.1408   3.6989   3.9922   3.9950   4.2169   4.3461   4.5659   5.2195
     5.2415   5.4743   5.7425  10.1601  12.6659  13.0008  16.0058

          k =-0.2500 0.5833-0.2500 (  2086 PWs)   bands (ev):

     2.7519   3.7219   3.9885   3.9909   4.2326   4.3091   4.6487   5.2415
     5.3442   5.5035   5.7414   8.4685  12.2957  12.5114  15.8977

          k = 0.6667-0.3333 0.6667 (  2078 PWs)   bands (ev):

     3.2220   3.7495   3.9595   3.9869   4.2432   4.2621   4.8362   5.1689
     5.5799   5.6138   5.8184   7.0422  11.7179  12.6150  15.9490

          k = 0.5833-0.2500 0.5833 (  2082 PWs)   bands (ev):

     3.2844   3.8000   3.8994   4.0209   4.1582   4.3161   4.9929   5.0626
     5.6052   5.6518   5.9191   6.7091  11.3299  12.9730  16.1844

          k = 0.5000-0.1667 0.5000 (  2082 PWs)   bands (ev):

     2.9132   3.8365   3.8749   4.0677   4.0804   4.3680   4.9584   4.9676
     5.4478   5.5374   5.6990   8.0049  11.1657  13.5565  16.6065

          k = 0.4167-0.0833 0.4167 (  2079 PWs)   bands (ev):

     2.3244   3.7924   3.9307   3.9953   4.1288   4.3766   4.8523   4.8994
     5.3648   5.4809   5.7185   9.6233  11.2382  14.3083  17.2166

          k = 0.3333 0.0000 0.3333 (  2083 PWs)   bands (ev):

     1.7535   3.7804   3.9446   3.9703   4.1468   4.3220   4.8302   4.9091
     5.2541   5.5271   5.7131  11.3260  11.6637  15.1044  18.0046

          k = 0.0000 0.5000 0.0000 (  2045 PWs)   bands (ev):

     1.9091   3.6505   4.0025   4.0025   4.2554   4.3778   4.4444   5.2627
     5.2627   5.4271   5.7619  12.3679  12.4044  12.4044  15.2190

          k =-0.0833 0.5833-0.0833 (  2076 PWs)   bands (ev):

     2.3851   3.6352   3.9962   4.0047   4.3273   4.3341   4.4324   5.3024
     5.3392   5.4016   5.7931  10.8157  11.8957  11.9491  15.3113

          k =-0.1667 0.6667-0.1667 (  2078 PWs)   bands (ev):

     2.9529   3.6495   3.9598   3.9977   4.3025   4.3758   4.4952   5.2215
     5.4568   5.4967   5.8350   9.2162  11.0913  11.7416  15.2946

          k = 0.7500-0.2500 0.7500 (  2081 PWs)   bands (ev):

     3.4274   3.6708   3.9310   3.9699   4.2827   4.4177   4.6379   5.1097
     5.5967   5.6551   5.9945   7.7550  10.3774  11.8095  15.3379

          k = 0.6667-0.1667 0.6667 (  2080 PWs)   bands (ev):

     3.5500   3.7343   3.9195   3.9533   4.2124   4.4660   4.8402   4.9857
     5.6712   5.7028   6.5161   6.7343   9.8530  12.1515  15.5411

          k = 0.5833-0.0833 0.5833 (  2081 PWs)   bands (ev):

     3.3272   3.8141   3.8607   4.0152   4.1211   4.5005   4.8804   4.9690
     5.6352   5.7144   5.7458   7.9002   9.5671  12.7345  15.9167

          k = 0.5000 0.0000 0.5000 (  2085 PWs)   bands (ev):

     2.8643   3.8131   3.8738   4.0448   4.0835   4.4694   4.8516   4.9418
     5.4484   5.5270   5.7288   9.2392   9.6997  13.4952  16.4736

          k = 0.0000 0.6667 0.0000 (  2080 PWs)   bands (ev):

     2.7934   3.6101   4.0091   4.0091   4.1614   4.4375   4.4728   5.2664
     5.4338   5.4338   5.8574  10.3899  11.4177  11.4177  14.8056

          k =-0.0833 0.7500-0.0833 (  2086 PWs)   bands (ev):

     3.2938   3.6208   3.9475   4.0060   4.1336   4.4945   4.5222   5.1631
     5.5309   5.5326   5.9632   9.3521  10.6078  11.1342  14.8916

          k = 0.8333-0.1667 0.8333 (  2092 PWs)   bands (ev):

     3.6453   3.7015   3.8713   3.9880   4.2305   4.5215   4.5855   5.0395
     5.6198   5.6691   6.2098   8.3104   9.5384  11.1387  14.9296

          k = 0.7500-0.0833 0.7500 (  2090 PWs)   bands (ev):

     3.6391   3.8446   3.8885   3.9518   4.2430   4.6344   4.6731   4.9081
     5.6800   5.7569   6.7587   7.3752   8.7252  11.4357  15.0922

          k = 0.6667-0.0000 0.6667 (  2079 PWs)   bands (ev):

     3.5765   3.8355   3.9045   3.9352   4.1778   4.6198   4.8364   4.8508
     5.7096   5.7447   6.3195   7.8159   8.4411  11.9898  15.4166

          k = 0.0000 0.8333 0.0000 (  2100 PWs)   bands (ev):

     3.6337   3.7107   3.9172   4.0105   4.0105   4.4921   4.6452   5.0745
     5.5900   5.5900   6.1645   8.5283  10.7666  10.7666  14.6112

          k = 0.9167-0.0833 0.9167 (  2082 PWs)   bands (ev):

     3.6722   3.8021   3.9691   4.0040   4.1633   4.4478   4.7390   4.9594
     5.6442   5.6624   6.5296   7.7391  10.0705  10.6927  14.6952

          k = 0.8333 0.0000 0.8333 (  2089 PWs)   bands (ev):

     3.6671   3.7928   3.9833   3.9885   4.2787   4.5026   4.7813   4.8512
     5.6739   5.7344   7.1266   7.1581   9.0131  10.9269  14.8164

          k = 0.0000-1.0000 0.0000 (  2100 PWs)   bands (ev):

     3.7341   3.7341   4.0103   4.0103   4.3124   4.3124   4.8627   4.8627
     5.6556   5.6556   7.0294   7.0294  10.5353  10.5353  14.6234

          k =-0.1667 0.3333 0.0000 (  2074 PWs)   bands (ev):

     1.3619   3.7563   3.9590   3.9858   4.1361   4.2653   4.7544   5.0543
     5.1609   5.5557   5.7088  12.5750  12.8470  15.0164  16.9174

          k =-0.2500 0.4167-0.0833 (  2076 PWs)   bands (ev):

     1.8524   3.7449   3.9663   3.9873   4.1645   4.3271   4.6942   5.0543
     5.2485   5.5124   5.7207  10.7477  12.2875  14.3500  17.1166

          k =-0.3333 0.5000-0.1667 (  2084 PWs)   bands (ev):

     2.4597   3.7649   3.9485   4.0216   4.1563   4.3343   4.7240   5.0990
     5.3274   5.4969   5.7159   8.9720  12.0276  13.6181  16.9190

          k = 0.5833-0.4167 0.7500 (  2080 PWs)   bands (ev):

     3.0198   3.7985   3.9144   4.0533   4.1486   4.2893   4.8688   5.1563
     5.4764   5.5525   5.6953   7.4430  11.9576  13.0417  16.7857

          k = 0.5000-0.3333 0.6667 (  2072 PWs)   bands (ev):

     3.2593   3.8086   3.8964   4.0473   4.1793   4.2443   4.9884   5.1270
     5.6038   5.6239   5.9830   6.4535  11.9777  12.7983  16.7465

          k =-0.1667 0.5000 0.0000 (  2067 PWs)   bands (ev):

     2.0279   3.6751   3.9829   4.0060   4.2324   4.3805   4.4997   5.1937
     5.2986   5.4451   5.7550  11.3200  11.7242  13.1718  16.1675

          k =-0.2500 0.5833-0.0833 (  2080 PWs)   bands (ev):

     2.5864   3.6814   3.9469   4.0245   4.2614   4.3950   4.5061   5.2085
     5.3851   5.4519   5.7746   9.7227  11.2270  12.4666  16.2815

          k = 0.6667-0.3333 0.8333 (  2083 PWs)   bands (ev):

     3.1430   3.7047   3.9017   4.0339   4.2747   4.3599   4.6425   5.1607
     5.5266   5.5669   5.8076   8.1451  10.9753  11.9305  16.2542

          k = 0.5833-0.2500 0.7500 (  2079 PWs)   bands (ev):

     3.4618   3.7216   3.8686   4.0329   4.2530   4.3596   4.8298   5.0575
     5.6359   5.6833   6.2286   6.8234  10.6785  11.8670  16.3797

          k = 0.5000-0.1667 0.6667 (  2080 PWs)   bands (ev):

     3.3660   3.7731   3.8461   4.0532   4.1804   4.4076   4.8535   5.0424
     5.6213   5.6859   5.9120   7.2843  10.4140  12.2318  16.6669

          k = 0.4167-0.0833 0.5833 (  2079 PWs)   bands (ev):

     2.9378   3.7676   3.8783   4.0609   4.1402   4.4414   4.7207   5.0814
     5.4567   5.5372   5.7443   8.7062  10.3368  12.8620  17.1011

          k = 0.3333 0.0000 0.5000 (  2072 PWs)   bands (ev):

     2.3673   3.7426   3.9345   4.0159   4.1608   4.4092   4.6601   5.0519
     5.3951   5.4464   5.7397  10.2168  10.6406  13.6421  17.6107

          k =-0.1667 0.6667-0.0000 (  2077 PWs)   bands (ev):

     2.8784   3.6312   3.9510   4.0212   4.2668   4.3968   4.4742   5.2330
     5.4467   5.4690   5.8478  10.0460  10.8408  11.4479  15.6639

          k = 0.7500-0.2500 0.9167 (  2084 PWs)   bands (ev):

     3.3837   3.6517   3.8810   4.0259   4.2995   4.4371   4.5297   5.1214
     5.5713   5.5965   5.9603   8.8298  10.1234  11.0016  15.7847

          k = 0.6667-0.1667 0.8333 (  2087 PWs)   bands (ev):

     3.6556   3.6955   3.8533   4.0151   4.2972   4.5051   4.6592   4.9919
     5.6603   5.7250   6.3609   7.5812   9.4864  11.0486  15.8985

          k = 0.5833-0.0833 0.7500 (  2090 PWs)   bands (ev):

     3.6029   3.7837   3.8418   4.0194   4.2273   4.5579   4.7879   4.9087
     5.7024   5.7372   6.4379   7.3762   9.0319  11.4408  16.1760

          k = 0.5000 0.0000 0.6667 (  2093 PWs)   bands (ev):

     3.3758   3.7925   3.8238   4.0550   4.1589   4.5468   4.7295   5.0152
     5.6609   5.6675   5.8278   8.4530   9.0081  12.0749  16.6112

          k = 0.8333-0.1667 1.0000 (  2090 PWs)   bands (ev):

     3.6436   3.7032   3.8568   4.0224   4.1609   4.4861   4.6173   5.0529
     5.6176   5.6208   6.1804   8.5230  10.2672  10.4422  15.4018

          k = 0.7500-0.0833 0.9167 (  2092 PWs)   bands (ev):

     3.6668   3.7697   3.9306   4.0156   4.2986   4.4979   4.6903   4.9193
     5.6789   5.7203   6.6342   7.7747   9.2163  10.4421  15.5522

          k = 0.6667 0.0000 0.8333 (  2099 PWs)   bands (ev):

     3.6475   3.7923   3.9338   4.0009   4.2780   4.6536   4.7018   4.8276
     5.7050   5.7706   7.0102   7.4228   8.4101  10.8187  15.7851

          k =-0.1667-1.0000-0.0000 (  2086 PWs)   bands (ev):

     3.7215   3.7215   4.0094   4.0094   4.3546   4.3546   4.8376   4.8376
     5.6835   5.6835   7.0893   7.0893  10.1012  10.1012  15.3677

          k = 0.6667-0.3333 1.0000 (  2092 PWs)   bands (ev):

     3.1025   3.6935   3.8757   4.0503   4.2803   4.4861   4.4974   5.1449
     5.4985   5.5565   5.8223   9.2597   9.8585  11.7018  17.4858

          k = 0.5833-0.2500 0.9167 (  2083 PWs)   bands (ev):

     3.5086   3.7123   3.8300   4.0561   4.3002   4.4748   4.6484   5.0315
     5.6511   5.6922   6.0367   8.0224   9.6127  11.0567  17.3392

          k = 0.5000-0.1667 0.8333 (  2088 PWs)   bands (ev):

     3.6616   3.6960   3.8305   4.0510   4.3172   4.4594   4.7743   4.9329
     5.6945   5.7330   6.6387   7.0145   9.6359  10.7843  17.3225

          k = 0.6667-0.1667 1.0000 (  2086 PWs)   bands (ev):

     3.6750   3.6803   3.8420   4.0450   4.4066   4.4386   4.5903   4.9880
     5.6859   5.6894   6.2732   8.3457   9.3857  10.1118  17.1559

          k = 0.5833-0.0833 0.9167 (  2098 PWs)   bands (ev):

     3.6759   3.7197   3.9209   4.0368   4.3936   4.5545   4.6739   4.8491
     5.7269   5.7611   6.8641   7.5953   8.8634   9.9116  17.3023

          k = 0.5000 0.0000 0.8333 (  2098 PWs)   bands (ev):

     3.6561   3.7289   3.8764   4.0461   4.3424   4.6198   4.6276   4.8856
     5.7263   5.7516   6.5742   7.8791   8.6639  10.3304  17.5589

          k =-0.3333-1.0000 0.0000 (  2090 PWs)   bands (ev):

     3.7000   3.7000   4.0062   4.0062   4.4508   4.4508   4.7748   4.7748
     5.7375   5.7375   7.2550   7.2550   9.3692   9.3692  17.0483

          k =-0.5000-1.0000 0.0000 (  2120 PWs)   bands (ev):

     3.6905   3.6905   4.0042   4.0042   4.5140   4.5140   4.7278   4.7278
     5.7636   5.7636   7.3799   7.3799   9.0122   9.0122  18.6401

     the Fermi energy is     6.8114 ev

!    total energy              =    -426.03832937 Ry
     Harris-Foulkes estimate   =    -426.03832940 Ry
     estimated scf accuracy    <       0.00000004 Ry

     total all-electron energy =     -6619.797866 Ry

     The total energy is the sum of the following terms:

     one-electron contribution =    -116.82498653 Ry
     hartree contribution      =      57.86627653 Ry
     xc contribution           =     -73.47054926 Ry
     ewald contribution        =    -127.80442421 Ry
     one-center paw contrib.   =    -165.80458872 Ry
     smearing contrib. (-TS)   =      -0.00005718 Ry

     convergence has been achieved in  10 iterations

     Writing output data file Cu.save

     init_run     :      3.11s CPU      3.24s WALL (       1 calls)
     electrons    :     65.47s CPU     67.89s WALL (       1 calls)

     Called by init_run:
     wfcinit      :      2.05s CPU      2.14s WALL (       1 calls)
     potinit      :      0.37s CPU      0.39s WALL (       1 calls)

     Called by electrons:
     c_bands      :     50.75s CPU     52.64s WALL (      11 calls)
     sum_band     :      9.60s CPU      9.92s WALL (      11 calls)
     v_of_rho     :      0.25s CPU      0.25s WALL (      11 calls)
     newd         :      0.54s CPU      0.55s WALL (      11 calls)
     mix_rho      :      0.90s CPU      0.92s WALL (      11 calls)

     Called by c_bands:
     init_us_2    :      1.29s CPU      1.34s WALL (    1656 calls)
     cegterg      :     47.43s CPU     49.13s WALL (     792 calls)

     Called by *egterg:
     h_psi        :     40.50s CPU     41.89s WALL (    2488 calls)
     s_psi        :      1.25s CPU      1.21s WALL (    2488 calls)
     g_psi        :      0.33s CPU      0.35s WALL (    1624 calls)
     cdiaghg      :      2.73s CPU      2.84s WALL (    2344 calls)

     Called by h_psi:
     add_vuspsi   :      1.21s CPU      1.24s WALL (    2488 calls)

     General routines
     calbec       :      2.05s CPU      2.03s WALL (    3280 calls)
     fft          :      0.12s CPU      0.13s WALL (     145 calls)
     fftw         :     41.94s CPU     42.21s WALL (   73292 calls)
     davcio       :      0.21s CPU      0.23s WALL (    2448 calls)

     Parallel routines
     fft_scatter  :      7.88s CPU      8.24s WALL (   73437 calls)

     PAW routines
     PAW_pot      :      3.76s CPU      3.93s WALL (      11 calls)
     PAW_ddot     :      0.87s CPU      0.89s WALL (     167 calls)
     PAW_symme    :      0.02s CPU      0.02s WALL (      22 calls)

     PWSCF        :  1m 9.77s CPU     1m12.36s WALL


   This run was terminated on:  20:26:20  11Jul2015            

=------------------------------------------------------------------------------=
   JOB DONE.
=------------------------------------------------------------------------------=
