
     Program PWSCF v.5.0.2 (svn rev. 9656) starts on 11Jul2015 at 20:21:15 

     This program is part of the open-source Quantum ESPRESSO suite
     for quantum simulation of materials; please cite
         "P. Giannozzi et al., J. Phys.:Condens. Matter 21 395502 (2009);
          URL http://www.quantum-espresso.org", 
     in publications or presentations arising from this work. More details at
     http://www.quantum-espresso.org/quote.php

     Parallel version (MPI), running on     4 processors
     R & G space division:  proc/nbgrp/npool/nimage =       4

     Current dimensions of program PWSCF are:
     Max number of different atomic species (ntypx) = 10
     Max number of k-points (npk) =  40000
     Max angular momentum in pseudopotentials (lmaxx) =  3
     Waiting for input...
     Reading input from standard input
               file Cu.pbe.UPF: wavefunction(s)  4S 3D renormalized

     Subspace diagonalization in iterative solution of the eigenvalue problem:
     a serial algorithm will be used


     Parallelization info
     --------------------
     sticks:   dense  smooth     PW     G-vecs:    dense   smooth      PW
     Min         214     214     63                 4156     4156     682
     Max         217     217     64                 4157     4157     686
     Sum         859     859    253                16625    16625    2733



     bravais-lattice index     =            2
     lattice parameter (alat)  =      10.2000  a.u.
     unit-cell volume          =     265.3020 (a.u.)^3
     number of atoms/cell      =            2
     number of atomic types    =            1
     number of electrons       =        22.00
     number of Kohn-Sham states=           15
     kinetic-energy cutoff     =      60.0000  Ry
     charge density cutoff     =     240.0000  Ry
     convergence threshold     =      1.0E-07
     mixing beta               =       0.7000
     number of iterations used =            8  plain     mixing
     Exchange-correlation      =  SLA  PW   PBX  PBC ( 1 4 3 4 0)
     EXX-fraction              =        0.00

     celldm(1)=  10.200000  celldm(2)=   0.000000  celldm(3)=   0.000000
     celldm(4)=   0.000000  celldm(5)=   0.000000  celldm(6)=   0.000000

     crystal axes: (cart. coord. in units of alat)
               a(1) = (  -0.500000   0.000000   0.500000 )  
               a(2) = (   0.000000   0.500000   0.500000 )  
               a(3) = (  -0.500000   0.500000   0.000000 )  

     reciprocal axes: (cart. coord. in units 2 pi/alat)
               b(1) = ( -1.000000 -1.000000  1.000000 )  
               b(2) = (  1.000000  1.000000  1.000000 )  
               b(3) = ( -1.000000  1.000000 -1.000000 )  


     PseudoPot. # 1 for Cu read from file:
     ./Cu.pbe.UPF
     MD5 check sum: 0c51aa2b3b25e0d1c3270f17c0a46a12
     Pseudo is Projector augmented-wave + core cor, Zval = 11.0
     Generated using "atomic" code by A. Dal Corso  v.5.0.99 svn rev. 10869
     Shape of augmentation charge: BESSEL
     Using radial grid of 1199 points,  6 beta functions with: 
                l(1) =   0
                l(2) =   0
                l(3) =   1
                l(4) =   1
                l(5) =   2
                l(6) =   2
     Q(r) pseudized with 0 coefficients 


     atomic species   valence    mass     pseudopotential
        Cu            11.00    63.54600     Cu( 1.00)

     48 Sym. Ops., with inversion, found (24 have fractional translation)



   Cartesian axes

     site n.     atom                  positions (alat units)
         1           Cu  tau(   1) = (   0.0000000   0.0000000   0.0000000  )
         2           Cu  tau(   2) = (   0.2500000   0.2500000   0.2500000  )

     number of k points=    20  gaussian smearing, width (Ry)=  0.0030
                       cart. coord. in units 2pi/alat
        k(    1) = (   0.0000000   0.0000000   0.0000000), wk =   0.0058309
        k(    2) = (  -0.1428571   0.1428571  -0.1428571), wk =   0.0466472
        k(    3) = (  -0.2857143   0.2857143  -0.2857143), wk =   0.0466472
        k(    4) = (  -0.4285714   0.4285714  -0.4285714), wk =   0.0466472
        k(    5) = (   0.0000000   0.2857143   0.0000000), wk =   0.0349854
        k(    6) = (  -0.1428571   0.4285714  -0.1428571), wk =   0.1399417
        k(    7) = (  -0.2857143   0.5714286  -0.2857143), wk =   0.1399417
        k(    8) = (   0.5714286  -0.2857143   0.5714286), wk =   0.1399417
        k(    9) = (   0.4285714  -0.1428571   0.4285714), wk =   0.1399417
        k(   10) = (   0.2857143  -0.0000000   0.2857143), wk =   0.0699708
        k(   11) = (   0.0000000   0.5714286   0.0000000), wk =   0.0349854
        k(   12) = (  -0.1428571   0.7142857  -0.1428571), wk =   0.1399417
        k(   13) = (   0.7142857  -0.1428571   0.7142857), wk =   0.1399417
        k(   14) = (   0.5714286   0.0000000   0.5714286), wk =   0.0699708
        k(   15) = (   0.0000000   0.8571429   0.0000000), wk =   0.0349854
        k(   16) = (   0.8571429  -0.0000000   0.8571429), wk =   0.0699708
        k(   17) = (  -0.2857143   0.5714286   0.0000000), wk =   0.1399417
        k(   18) = (   0.5714286  -0.2857143   0.8571429), wk =   0.2798834
        k(   19) = (   0.7142857  -0.1428571   1.0000000), wk =   0.1399417
        k(   20) = (   0.5714286   0.0000000   0.8571429), wk =   0.1399417

     Dense  grid:    16625 G-vectors     FFT dimensions: (  36,  36,  36)

     Largest allocated arrays     est. size (Mb)     dimensions
        Kohn-Sham Wavefunctions         0.12 Mb     (    530,   15)
        NL pseudopotentials             0.29 Mb     (    530,   36)
        Each V/rho on FFT grid          0.18 Mb     (  11664)
        Each G-vector array             0.03 Mb     (   4157)
        G-vector shells                 0.00 Mb     (    213)
     Largest temporary arrays     est. size (Mb)     dimensions
        Auxiliary wavefunctions         0.49 Mb     (    530,   60)
        Each subspace H/S matrix        0.05 Mb     (  60,  60)
        Each <psi_i|beta_j> matrix      0.01 Mb     (     36,   15)
        Arrays for rho mixing           1.42 Mb     (  11664,   8)

     Check: negative/imaginary core charge=   -0.000021    0.000000

     Initial potential from superposition of free atoms

     starting charge   21.99954, renormalised to   22.00000
     Starting wfc are   18 randomized atomic wfcs
     Checking if some PAW data can be deallocated... 

     total cpu time spent up to now is        2.5 secs

     per-process dynamical memory:    12.3 Mb

     Self-consistent Calculation

     iteration #  1     ecut=    60.00 Ry     beta=0.70
     Davidson diagonalization with overlap
     ethr =  1.00E-02,  avg # of iterations =  3.6

     Threshold (ethr) on eigenvalues was too large:
     Diagonalizing with lowered threshold

     Davidson diagonalization with overlap
     ethr =  1.90E-05,  avg # of iterations =  4.3

     total cpu time spent up to now is        6.7 secs

     total energy              =    -426.03771325 Ry
     Harris-Foulkes estimate   =    -426.03799339 Ry
     estimated scf accuracy    <       0.00542593 Ry

     iteration #  2     ecut=    60.00 Ry     beta=0.70
     Davidson diagonalization with overlap
     ethr =  2.47E-05,  avg # of iterations =  2.0

     total cpu time spent up to now is        8.7 secs

     total energy              =    -426.03645698 Ry
     Harris-Foulkes estimate   =    -426.03941942 Ry
     estimated scf accuracy    <       0.00586973 Ry

     iteration #  3     ecut=    60.00 Ry     beta=0.70
     Davidson diagonalization with overlap
     ethr =  2.47E-05,  avg # of iterations =  2.1

     total cpu time spent up to now is       10.8 secs

     total energy              =    -426.03795294 Ry
     Harris-Foulkes estimate   =    -426.03888488 Ry
     estimated scf accuracy    <       0.00315621 Ry

     iteration #  4     ecut=    60.00 Ry     beta=0.70
     Davidson diagonalization with overlap
     ethr =  1.43E-05,  avg # of iterations =  1.3

     total cpu time spent up to now is       12.5 secs

     total energy              =    -426.03836648 Ry
     Harris-Foulkes estimate   =    -426.03836727 Ry
     estimated scf accuracy    <       0.00000352 Ry

     iteration #  5     ecut=    60.00 Ry     beta=0.70
     Davidson diagonalization with overlap
     ethr =  1.60E-08,  avg # of iterations =  3.9

     total cpu time spent up to now is       15.2 secs

     total energy              =    -426.03839629 Ry
     Harris-Foulkes estimate   =    -426.03839726 Ry
     estimated scf accuracy    <       0.00000688 Ry

     iteration #  6     ecut=    60.00 Ry     beta=0.70
     Davidson diagonalization with overlap
     ethr =  1.60E-08,  avg # of iterations =  1.0

     total cpu time spent up to now is       17.0 secs

     total energy              =    -426.03839619 Ry
     Harris-Foulkes estimate   =    -426.03839648 Ry
     estimated scf accuracy    <       0.00000231 Ry

     iteration #  7     ecut=    60.00 Ry     beta=0.70
     Davidson diagonalization with overlap
     ethr =  1.05E-08,  avg # of iterations =  1.0

     total cpu time spent up to now is       18.8 secs

     total energy              =    -426.03839642 Ry
     Harris-Foulkes estimate   =    -426.03839627 Ry
     estimated scf accuracy    <       0.00000065 Ry

     iteration #  8     ecut=    60.00 Ry     beta=0.70
     Davidson diagonalization with overlap
     ethr =  2.96E-09,  avg # of iterations =  1.1

     total cpu time spent up to now is       20.6 secs

     total energy              =    -426.03839628 Ry
     Harris-Foulkes estimate   =    -426.03839648 Ry
     estimated scf accuracy    <       0.00000197 Ry

     iteration #  9     ecut=    60.00 Ry     beta=0.70
     Davidson diagonalization with overlap
     ethr =  2.96E-09,  avg # of iterations =  1.0

     total cpu time spent up to now is       22.6 secs

     total energy              =    -426.03839606 Ry
     Harris-Foulkes estimate   =    -426.03839631 Ry
     estimated scf accuracy    <       0.00000093 Ry

     iteration # 10     ecut=    60.00 Ry     beta=0.70
     Davidson diagonalization with overlap
     ethr =  2.96E-09,  avg # of iterations =  1.6

     total cpu time spent up to now is       24.3 secs

     End of self-consistent calculation

          k = 0.0000 0.0000 0.0000 (  2085 PWs)   bands (ev):

     0.6689   3.9855   3.9855   3.9855   4.0078   4.0078   5.0410   5.0410
     5.0410   5.6652   5.6652  16.3856  16.3856  16.3856  17.3279

          k =-0.1429 0.1429-0.1429 (  2079 PWs)   bands (ev):

     0.9794   3.8920   3.8920   3.9929   4.1467   4.1467   4.9796   5.0352
     5.0352   5.6654   5.6654  13.2026  15.3689  15.3689  17.7389

          k =-0.2857 0.2857-0.2857 (  2072 PWs)   bands (ev):

     1.8486   3.8844   3.8844   4.0269   4.2146   4.2146   4.8765   5.0868
     5.0868   5.6473   5.6473   9.7939  14.3765  14.3765  17.5285

          k =-0.4286 0.4286-0.4286 (  2066 PWs)   bands (ev):

     2.8765   3.9616   3.9616   4.0435   4.1407   4.1407   5.1391   5.2141
     5.2141   5.5968   5.5968   7.1063  13.8404  13.8404  17.6330

          k = 0.0000 0.2857 0.0000 (  2081 PWs)   bands (ev):

     1.0845   3.7826   4.0016   4.0016   4.0976   4.2306   4.8082   5.1169
     5.1169   5.5914   5.7194  14.0597  14.0597  14.6557  16.1021

          k =-0.1429 0.4286-0.1429 (  2079 PWs)   bands (ev):

     1.7765   3.7336   3.9962   4.0119   4.1968   4.3345   4.6488   5.1712
     5.2077   5.5267   5.7442  11.0021  13.0892  13.7349  16.3424

          k =-0.2857 0.5714-0.2857 (  2088 PWs)   bands (ev):

     2.8116   3.7698   4.0040   4.0138   4.2149   4.2967   4.7485   5.2531
     5.3552   5.5365   5.7323   8.0504  12.5739  12.7508  16.1184

          k = 0.5714-0.2857 0.5714 (  2082 PWs)   bands (ev):

     3.2398   3.8369   3.9236   4.0448   4.1668   4.2863   5.0345   5.1155
     5.6081   5.6534   5.8606   6.6256  11.8155  13.1439  16.3666

          k = 0.4286-0.1429 0.4286 (  2080 PWs)   bands (ev):

     2.4537   3.8235   3.9410   4.0286   4.1380   4.3648   4.8846   4.9551
     5.3703   5.5158   5.7237   8.9909  11.6884  14.1872  17.1768

          k = 0.2857-0.0000 0.2857 (  2079 PWs)   bands (ev):

     1.4810   3.8040   3.9441   3.9966   4.1579   4.2925   4.8663   4.9475
     5.2067   5.5782   5.7203  12.0322  12.3333  15.5006  18.2084

          k = 0.0000 0.5714 0.0000 (  2061 PWs)   bands (ev):

     2.2738   3.6417   4.0229   4.0229   4.3365   4.3453   4.4398   5.3506
     5.3506   5.3799   5.8088  11.5293  11.9506  11.9506  15.0203

          k =-0.1429 0.7143-0.1429 (  2076 PWs)   bands (ev):

     3.1666   3.6502   3.9590   4.0159   4.2596   4.4636   4.5089   5.2014
     5.5326   5.5396   5.9147   9.2506  10.5900  11.4496  15.1071

          k = 0.7143-0.1429 0.7143 (  2091 PWs)   bands (ev):

     3.6387   3.7568   3.9299   3.9565   4.2531   4.5469   4.7557   4.9867
     5.6861   5.7509   6.5804   7.0857   9.3736  11.7668  15.2959

          k = 0.5714 0.0000 0.5714 (  2091 PWs)   bands (ev):

     3.2816   3.8436   3.8652   4.0394   4.1181   4.5477   4.8563   4.9896
     5.6542   5.6564   5.7421   8.5469   9.0628  12.8179  15.9672

          k = 0.0000 0.8571 0.0000 (  2088 PWs)   bands (ev):

     3.6580   3.8289   3.9055   4.0273   4.0273   4.4974   4.6924   5.0619
     5.6242   5.6242   6.2598   8.2938  10.7102  10.7102  14.6072

          k = 0.8571-0.0000 0.8571 (  2091 PWs)   bands (ev):

     3.6934   3.7928   4.0073   4.0140   4.3003   4.4706   4.8175   4.8704
     5.6872   5.7360   7.1227   7.1279   9.3019  10.8294  14.7715

          k =-0.2857 0.5714 0.0000 (  2068 PWs)   bands (ev):

     2.5808   3.7112   3.9470   4.0483   4.2463   4.4541   4.5310   5.1814
     5.4386   5.4499   5.7861  10.0813  10.5717  12.6955  17.2031

          k = 0.5714-0.2857 0.8571 (  2074 PWs)   bands (ev):

     3.4245   3.7427   3.8583   4.0720   4.2714   4.4323   4.7472   5.0786
     5.6387   5.7001   5.9671   7.6361  10.2290  11.5735  17.0690

          k = 0.7143-0.1429 1.0000 (  2095 PWs)   bands (ev):

     3.6818   3.7404   3.8686   4.0536   4.3519   4.4810   4.6316   4.9980
     5.6982   5.7005   6.3507   8.2675   9.6000  10.0228  16.5786

          k = 0.5714 0.0000 0.8571 (  2102 PWs)   bands (ev):

     3.6726   3.7609   3.9318   4.0470   4.3491   4.6629   4.6841   4.8422
     5.7445   5.7876   6.8927   7.6236   8.4983  10.3082  16.9664

     the Fermi energy is     6.8927 ev

!    total energy              =    -426.03839616 Ry
     Harris-Foulkes estimate   =    -426.03839617 Ry
     estimated scf accuracy    <          8.6E-09 Ry

     total all-electron energy =     -6619.797933 Ry

     The total energy is the sum of the following terms:

     one-electron contribution =    -116.84497022 Ry
     hartree contribution      =      57.88782042 Ry
     xc contribution           =     -73.47412180 Ry
     ewald contribution        =    -127.80442421 Ry
     one-center paw contrib.   =    -165.80258192 Ry
     smearing contrib. (-TS)   =      -0.00011843 Ry

     convergence has been achieved in  10 iterations

     Writing output data file Cu.save

     init_run     :      1.58s CPU      1.65s WALL (       1 calls)
     electrons    :     21.21s CPU     21.82s WALL (       1 calls)

     Called by init_run:
     wfcinit      :      0.55s CPU      0.58s WALL (       1 calls)
     potinit      :      0.36s CPU      0.37s WALL (       1 calls)

     Called by electrons:
     c_bands      :     13.34s CPU     13.72s WALL (      11 calls)
     sum_band     :      3.00s CPU      3.07s WALL (      11 calls)
     v_of_rho     :      0.24s CPU      0.24s WALL (      11 calls)
     newd         :      0.52s CPU      0.52s WALL (      11 calls)
     mix_rho      :      0.86s CPU      0.87s WALL (      11 calls)

     Called by c_bands:
     init_us_2    :      0.36s CPU      0.36s WALL (     460 calls)
     cegterg      :     12.47s CPU     12.81s WALL (     220 calls)

     Called by *egterg:
     h_psi        :     10.60s CPU     10.89s WALL (     700 calls)
     s_psi        :      0.34s CPU      0.33s WALL (     700 calls)
     g_psi        :      0.09s CPU      0.09s WALL (     460 calls)
     cdiaghg      :      0.74s CPU      0.75s WALL (     660 calls)

     Called by h_psi:
     add_vuspsi   :      0.32s CPU      0.33s WALL (     700 calls)

     General routines
     calbec       :      0.54s CPU      0.56s WALL (     920 calls)
     fft          :      0.12s CPU      0.12s WALL (     145 calls)
     fftw         :     10.98s CPU     10.91s WALL (   20388 calls)
     davcio       :      0.06s CPU      0.06s WALL (     680 calls)

     Parallel routines
     fft_scatter  :      2.22s CPU      2.28s WALL (   20533 calls)

     PAW routines
     PAW_pot      :      3.58s CPU      3.72s WALL (      11 calls)
     PAW_ddot     :      0.83s CPU      0.84s WALL (     167 calls)
     PAW_symme    :      0.02s CPU      0.02s WALL (      22 calls)

     PWSCF        :    23.78s CPU        24.49s WALL


   This run was terminated on:  20:21:40  11Jul2015            

=------------------------------------------------------------------------------=
   JOB DONE.
=------------------------------------------------------------------------------=
