
     Program PWSCF v.5.0.2 (svn rev. 9656) starts on 26Jul2015 at  2:41:44 

     This program is part of the open-source Quantum ESPRESSO suite
     for quantum simulation of materials; please cite
         "P. Giannozzi et al., J. Phys.:Condens. Matter 21 395502 (2009);
          URL http://www.quantum-espresso.org", 
     in publications or presentations arising from this work. More details at
     http://www.quantum-espresso.org/quote.php

     Parallel version (MPI), running on     4 processors
     R & G space division:  proc/nbgrp/npool/nimage =       4

     Current dimensions of program PWSCF are:
     Max number of different atomic species (ntypx) = 10
     Max number of k-points (npk) =  40000
     Max angular momentum in pseudopotentials (lmaxx) =  3
     Waiting for input...
     Reading input from standard input
               file C.pbe-rrkjus.UPF: wavefunction(s)  2S 2P renormalized

     Subspace diagonalization in iterative solution of the eigenvalue problem:
     a serial algorithm will be used


     Parallelization info
     --------------------
     sticks:   dense  smooth     PW     G-vecs:    dense   smooth      PW
     Min         211     109     34                58589    22883    3920
     Max         212     110     35                58614    22916    3945
     Sum         847     439    139               234415    91585   15729



     bravais-lattice index     =            0
     lattice parameter (alat)  =       4.6500  a.u.
     unit-cell volume          =    1044.8904 (a.u.)^3
     number of atoms/cell      =            2
     number of atomic types    =            1
     number of electrons       =         8.00
     number of Kohn-Sham states=            8
     kinetic-energy cutoff     =      75.0000  Ry
     charge density cutoff     =     560.0000  Ry
     convergence threshold     =      1.0E-08
     mixing beta               =       0.7000
     number of iterations used =            8  plain     mixing
     Exchange-correlation      =  SLA  PW   PBE  PBE ( 1 4 3 4 0)
     EXX-fraction              =        0.00

     celldm(1)=   4.650000  celldm(2)=   0.000000  celldm(3)=   0.000000
     celldm(4)=   0.000000  celldm(5)=   0.000000  celldm(6)=   0.000000

     crystal axes: (cart. coord. in units of alat)
               a(1) = (   1.000000   0.000000   0.000000 )  
               a(2) = (   0.500000   0.866025   0.000000 )  
               a(3) = (   0.000000   0.000000  12.000000 )  

     reciprocal axes: (cart. coord. in units 2 pi/alat)
               b(1) = (  1.000000 -0.577350  0.000000 )  
               b(2) = (  0.000000  1.154701  0.000000 )  
               b(3) = (  0.000000  0.000000  0.083333 )  


     PseudoPot. # 1 for C  read from file:
     ./C.pbe-rrkjus.UPF
     MD5 check sum: 00fb224312de0c5b6853bd333518df6f
     Pseudo is Ultrasoft, Zval =  4.0
     Generated by new atomic code, or converted to UPF format
     Using radial grid of  627 points,  4 beta functions with: 
                l(1) =   0
                l(2) =   0
                l(3) =   1
                l(4) =   1
     Q(r) pseudized with 0 coefficients 


     atomic species   valence    mass     pseudopotential
        C              4.00    12.00000     C ( 1.00)

     24 Sym. Ops., with inversion, found (12 have fractional translation)



   Cartesian axes

     site n.     atom                  positions (alat units)
         1           C   tau(   1) = (   0.0000000   0.0000000   0.0000000  )
         2           C   tau(   2) = (   1.0000000   0.5773503   0.0000000  )

     number of k points=     8  gaussian smearing, width (Ry)=  0.0010
                       cart. coord. in units 2pi/alat
        k(    1) = (   0.0000000   0.0000000   0.0000000), wk =   0.0408163
        k(    2) = (   0.0000000   0.1649572   0.0000000), wk =   0.2448980
        k(    3) = (   0.0000000   0.3299144   0.0000000), wk =   0.2448980
        k(    4) = (   0.0000000   0.4948717   0.0000000), wk =   0.2448980
        k(    5) = (   0.1428571   0.2474358   0.0000000), wk =   0.2448980
        k(    6) = (   0.1428571   0.4123931   0.0000000), wk =   0.4897959
        k(    7) = (   0.1428571  -0.5773503   0.0000000), wk =   0.2448980
        k(    8) = (   0.2857143  -0.6598289   0.0000000), wk =   0.2448980

     Dense  grid:   234415 G-vectors     FFT dimensions: (  36,  36, 432)

     Smooth grid:    91585 G-vectors     FFT dimensions: (  25,  25, 320)

     Largest allocated arrays     est. size (Mb)     dimensions
        Kohn-Sham Wavefunctions         0.36 Mb     (   2923,    8)
        NL pseudopotentials             0.71 Mb     (   2923,   16)
        Each V/rho on FFT grid          2.14 Mb     ( 139968)
        Each G-vector array             0.45 Mb     (  58604)
        G-vector shells                 0.13 Mb     (  17487)
     Largest temporary arrays     est. size (Mb)     dimensions
        Auxiliary wavefunctions         1.43 Mb     (   2923,   32)
        Each subspace H/S matrix        0.02 Mb     (  32,  32)
        Each <psi_i|beta_j> matrix      0.00 Mb     (     16,    8)
        Arrays for rho mixing          17.09 Mb     ( 139968,   8)

     Initial potential from superposition of free atoms

     starting charge    7.99989, renormalised to    8.00000

     negative rho (up, down):  0.254E-04 0.000E+00
     Starting wfc are    8 randomized atomic wfcs

     total cpu time spent up to now is        4.0 secs

     per-process dynamical memory:    30.6 Mb

     Self-consistent Calculation

     iteration #  1     ecut=    75.00 Ry     beta=0.70
     Davidson diagonalization with overlap
     ethr =  1.00E-02,  avg # of iterations =  5.4

     negative rho (up, down):  0.179E-04 0.000E+00

     total cpu time spent up to now is       10.0 secs

     total energy              =     -22.76062761 Ry
     Harris-Foulkes estimate   =     -22.88502864 Ry
     estimated scf accuracy    <       0.20644446 Ry

     iteration #  2     ecut=    75.00 Ry     beta=0.70
     Davidson diagonalization with overlap
     ethr =  2.58E-03,  avg # of iterations =  4.1

     negative rho (up, down):  0.172E-04 0.000E+00

     total cpu time spent up to now is       14.8 secs

     total energy              =     -22.79177785 Ry
     Harris-Foulkes estimate   =     -22.79190837 Ry
     estimated scf accuracy    <       0.00247911 Ry

     iteration #  3     ecut=    75.00 Ry     beta=0.70
     Davidson diagonalization with overlap
     ethr =  3.10E-05,  avg # of iterations = 12.1

     negative rho (up, down):  0.186E-04 0.000E+00

     total cpu time spent up to now is       22.1 secs

     total energy              =     -22.79209069 Ry
     Harris-Foulkes estimate   =     -22.79206153 Ry
     estimated scf accuracy    <       0.00014505 Ry

     iteration #  4     ecut=    75.00 Ry     beta=0.70
     Davidson diagonalization with overlap
     ethr =  1.81E-06,  avg # of iterations =  4.8

     negative rho (up, down):  0.187E-04 0.000E+00

     total cpu time spent up to now is       27.0 secs

     total energy              =     -22.79209592 Ry
     Harris-Foulkes estimate   =     -22.79209521 Ry
     estimated scf accuracy    <       0.00000070 Ry

     iteration #  5     ecut=    75.00 Ry     beta=0.70
     Davidson diagonalization with overlap
     ethr =  8.76E-09,  avg # of iterations =  2.5

     negative rho (up, down):  0.187E-04 0.000E+00

     total cpu time spent up to now is       31.7 secs

     total energy              =     -22.79209622 Ry
     Harris-Foulkes estimate   =     -22.79209621 Ry
     estimated scf accuracy    <       0.00000002 Ry

     iteration #  6     ecut=    75.00 Ry     beta=0.70
     Davidson diagonalization with overlap
     ethr =  3.01E-10,  avg # of iterations =  2.0

     negative rho (up, down):  0.186E-04 0.000E+00

     total cpu time spent up to now is       36.0 secs

     End of self-consistent calculation

          k = 0.0000 0.0000 0.0000 ( 11445 PWs)   bands (ev):

   -22.4923 -10.6025  -6.0256  -6.0256   0.3034   1.0416   1.2091   1.5613

          k = 0.0000 0.1650 0.0000 ( 11557 PWs)   bands (ev):

   -22.0103 -10.0269  -7.7714  -6.9091   0.9605   1.7092   1.8846   2.2333

          k = 0.0000 0.3299 0.0000 ( 11503 PWs)   bands (ev):

   -20.5813 -11.3457  -8.3826  -8.3558   2.9257   3.2616   3.7636   3.9107

          k = 0.0000 0.4949 0.0000 ( 11415 PWs)   bands (ev):

   -18.2875 -14.9862  -9.2927  -5.9780  -0.4222   4.5572   6.1955   7.0210

          k = 0.1429 0.2474 0.0000 ( 11529 PWs)   bands (ev):

   -21.0549  -9.8605  -8.8994  -8.6675   2.2744   3.0394   3.2355   3.5749

          k = 0.1429 0.4124 0.0000 ( 11446 PWs)   bands (ev):

   -19.1868 -13.0474 -10.2897  -6.7864   1.0522   4.8826   5.6702   5.9369

          k = 0.1429-0.5774 0.0000 ( 11412 PWs)   bands (ev):

   -16.9211 -15.9215 -10.8077  -4.8786  -1.4170   6.4395   8.6028   8.7890

          k = 0.2857-0.6598 0.0000 ( 11396 PWs)   bands (ev):

   -16.9996 -14.4699 -12.8687  -4.4618  -1.4509   7.8166   8.0382   9.3119

     the Fermi energy is    -2.6079 ev

!    total energy              =     -22.79209622 Ry
     Harris-Foulkes estimate   =     -22.79209622 Ry
     estimated scf accuracy    <          6.7E-10 Ry

     The total energy is the sum of the following terms:

     one-electron contribution =    -353.76141596 Ry
     hartree contribution      =     177.88965552 Ry
     xc contribution           =      -7.02457721 Ry
     ewald contribution        =     160.10424143 Ry
     smearing contrib. (-TS)   =      -0.00000000 Ry

     convergence has been achieved in   6 iterations

     Writing output data file graphene.save

     init_run     :      3.76s CPU      3.96s WALL (       1 calls)
     electrons    :     30.38s CPU     31.95s WALL (       1 calls)

     Called by init_run:
     wfcinit      :      0.94s CPU      0.98s WALL (       1 calls)
     potinit      :      1.22s CPU      1.29s WALL (       1 calls)

     Called by electrons:
     c_bands      :     17.53s CPU     18.27s WALL (       6 calls)
     sum_band     :      6.52s CPU      6.88s WALL (       6 calls)
     v_of_rho     :      2.72s CPU      2.94s WALL (       7 calls)
     newd         :      3.38s CPU      3.58s WALL (       7 calls)
     mix_rho      :      0.45s CPU      0.48s WALL (       6 calls)

     Called by c_bands:
     init_us_2    :      0.30s CPU      0.38s WALL (     104 calls)
     cegterg      :     17.15s CPU     17.80s WALL (      48 calls)

     Called by *egterg:
     h_psi        :     15.88s CPU     16.49s WALL (     303 calls)
     s_psi        :      0.30s CPU      0.30s WALL (     303 calls)
     g_psi        :      0.08s CPU      0.08s WALL (     247 calls)
     cdiaghg      :      0.13s CPU      0.13s WALL (     295 calls)

     Called by h_psi:
     add_vuspsi   :      0.28s CPU      0.29s WALL (     303 calls)

     General routines
     calbec       :      0.47s CPU      0.49s WALL (     351 calls)
     fft          :      2.63s CPU      2.83s WALL (     107 calls)
     ffts         :      0.09s CPU      0.09s WALL (      13 calls)
     fftw         :     11.05s CPU     11.65s WALL (    2960 calls)
     interpolate  :      0.55s CPU      0.55s WALL (      13 calls)
     davcio       :      0.08s CPU      0.12s WALL (     152 calls)

     Parallel routines
     fft_scatter  :      8.19s CPU      8.84s WALL (    3080 calls)

     PWSCF        :    34.40s CPU        36.21s WALL


   This run was terminated on:   2:42:20  26Jul2015            

=------------------------------------------------------------------------------=
   JOB DONE.
=------------------------------------------------------------------------------=
