
     Program PWSCF v.5.0.2 (svn rev. 9656) starts on 12Jul2015 at  2:31:28 

     This program is part of the open-source Quantum ESPRESSO suite
     for quantum simulation of materials; please cite
         "P. Giannozzi et al., J. Phys.:Condens. Matter 21 395502 (2009);
          URL http://www.quantum-espresso.org", 
     in publications or presentations arising from this work. More details at
     http://www.quantum-espresso.org/quote.php

     Parallel version (MPI), running on     4 processors
     R & G space division:  proc/nbgrp/npool/nimage =       4

     Current dimensions of program PWSCF are:
     Max number of different atomic species (ntypx) = 10
     Max number of k-points (npk) =  40000
     Max angular momentum in pseudopotentials (lmaxx) =  3
     Waiting for input...
     Reading input from standard input
               file Al.pbe-n-kjpaw_psl.0.1.UPF: wavefunction(s)  3S renormalized

     Subspace diagonalization in iterative solution of the eigenvalue problem:
     a serial algorithm will be used


     Parallelization info
     --------------------
     sticks:   dense  smooth     PW     G-vecs:    dense   smooth      PW
     Min         189     189     60                 3462     3462     605
     Max         190     190     61                 3464     3464     606
     Sum         757     757    241                13851    13851    2421



     bravais-lattice index     =            2
     lattice parameter (alat)  =       7.6300  a.u.
     unit-cell volume          =     111.0487 (a.u.)^3
     number of atoms/cell      =            1
     number of atomic types    =            1
     number of electrons       =         3.00
     number of Kohn-Sham states=            6
     kinetic-energy cutoff     =      95.0000  Ry
     charge density cutoff     =     380.0000  Ry
     convergence threshold     =      1.0E-07
     mixing beta               =       0.7000
     number of iterations used =            8  plain     mixing
     Exchange-correlation      =  SLA  PW   PBX  PBC ( 1 4 3 4 0)
     EXX-fraction              =        0.00

     celldm(1)=   7.630000  celldm(2)=   0.000000  celldm(3)=   0.000000
     celldm(4)=   0.000000  celldm(5)=   0.000000  celldm(6)=   0.000000

     crystal axes: (cart. coord. in units of alat)
               a(1) = (  -0.500000   0.000000   0.500000 )  
               a(2) = (   0.000000   0.500000   0.500000 )  
               a(3) = (  -0.500000   0.500000   0.000000 )  

     reciprocal axes: (cart. coord. in units 2 pi/alat)
               b(1) = ( -1.000000 -1.000000  1.000000 )  
               b(2) = (  1.000000  1.000000  1.000000 )  
               b(3) = ( -1.000000  1.000000 -1.000000 )  


     PseudoPot. # 1 for Al read from file:
     ./Al.pbe-n-kjpaw_psl.0.1.UPF
     MD5 check sum: 023d9faf819c76fc4df1f064efe7b7b2
     Pseudo is Projector augmented-wave + core cor, Zval =  3.0
     Generated using "atomic" code by A. Dal Corso  v.5.0.2 svn rev. 9415
     Shape of augmentation charge: PSQ
     Using radial grid of 1135 points,  4 beta functions with: 
                l(1) =   0
                l(2) =   0
                l(3) =   1
                l(4) =   1
     Q(r) pseudized with 0 coefficients 


     atomic species   valence    mass     pseudopotential
        Al             3.00    26.98154     Al( 1.00)

     48 Sym. Ops., with inversion, found



   Cartesian axes

     site n.     atom                  positions (alat units)
         1           Al  tau(   1) = (   0.0000000   0.0000000   0.0000000  )

     number of k points=   145  gaussian smearing, width (Ry)=  0.0030

     Number of k-points >= 100: set verbosity='high' to print them.

     Dense  grid:    13851 G-vectors     FFT dimensions: (  36,  36,  36)

     Largest allocated arrays     est. size (Mb)     dimensions
        Kohn-Sham Wavefunctions         0.04 Mb     (    457,    6)
        NL pseudopotentials             0.06 Mb     (    457,    8)
        Each V/rho on FFT grid          0.18 Mb     (  11664)
        Each G-vector array             0.03 Mb     (   3462)
        G-vector shells                 0.00 Mb     (    188)
     Largest temporary arrays     est. size (Mb)     dimensions
        Auxiliary wavefunctions         0.17 Mb     (    457,   24)
        Each subspace H/S matrix        0.01 Mb     (  24,  24)
        Each <psi_i|beta_j> matrix      0.00 Mb     (      8,    6)
        Arrays for rho mixing           1.42 Mb     (  11664,   8)

     Check: negative/imaginary core charge=   -0.000001    0.000000

     Initial potential from superposition of free atoms

     starting charge    2.99771, renormalised to    3.00000
     Starting wfc are    4 randomized atomic wfcs
     Checking if some PAW data can be deallocated... 

     total cpu time spent up to now is        4.5 secs

     per-process dynamical memory:    10.0 Mb

     Self-consistent Calculation

     iteration #  1     ecut=    95.00 Ry     beta=0.70
     Davidson diagonalization with overlap
     ethr =  1.00E-02,  avg # of iterations =  4.9

     Threshold (ethr) on eigenvalues was too large:
     Diagonalizing with lowered threshold

     Davidson diagonalization with overlap
     ethr =  1.96E-04,  avg # of iterations =  2.1

     total cpu time spent up to now is       31.5 secs

     total energy              =     -39.50346626 Ry
     Harris-Foulkes estimate   =     -39.50486694 Ry
     estimated scf accuracy    <       0.00556035 Ry

     iteration #  2     ecut=    95.00 Ry     beta=0.70
     Davidson diagonalization with overlap
     ethr =  1.85E-04,  avg # of iterations =  1.0

     total cpu time spent up to now is       41.5 secs

     total energy              =     -39.50342600 Ry
     Harris-Foulkes estimate   =     -39.50353220 Ry
     estimated scf accuracy    <       0.00040412 Ry

     iteration #  3     ecut=    95.00 Ry     beta=0.70
     Davidson diagonalization with overlap
     ethr =  1.35E-05,  avg # of iterations =  1.8

     total cpu time spent up to now is       52.4 secs

     total energy              =     -39.50344676 Ry
     Harris-Foulkes estimate   =     -39.50344732 Ry
     estimated scf accuracy    <       0.00000136 Ry

     iteration #  4     ecut=    95.00 Ry     beta=0.70
     Davidson diagonalization with overlap
     ethr =  4.53E-08,  avg # of iterations =  3.3

     total cpu time spent up to now is       65.6 secs

     total energy              =     -39.50344811 Ry
     Harris-Foulkes estimate   =     -39.50344805 Ry
     estimated scf accuracy    <       0.00000010 Ry

     iteration #  5     ecut=    95.00 Ry     beta=0.70
     Davidson diagonalization with overlap
     ethr =  3.47E-09,  avg # of iterations =  2.2

     total cpu time spent up to now is       75.8 secs

     total energy              =     -39.50344798 Ry
     Harris-Foulkes estimate   =     -39.50344814 Ry
     estimated scf accuracy    <       0.00000043 Ry

     iteration #  6     ecut=    95.00 Ry     beta=0.70
     Davidson diagonalization with overlap
     ethr =  3.47E-09,  avg # of iterations =  1.0

     total cpu time spent up to now is       84.4 secs

     End of self-consistent calculation

     Number of k-points >= 100: set verbosity='high' to print the bands.

     the Fermi energy is     7.9606 ev

!    total energy              =     -39.50344800 Ry
     Harris-Foulkes estimate   =     -39.50344800 Ry
     estimated scf accuracy    <          1.3E-10 Ry

     total all-electron energy =      -485.646230 Ry

     The total energy is the sum of the following terms:

     one-electron contribution =       3.16791608 Ry
     hartree contribution      =       0.00568083 Ry
     xc contribution           =      -3.03153406 Ry
     ewald contribution        =      -5.40809419 Ry
     one-center paw contrib.   =     -34.23740321 Ry
     smearing contrib. (-TS)   =      -0.00001344 Ry

     convergence has been achieved in   6 iterations

     Writing output data file Al.save

     init_run     :      1.82s CPU      3.91s WALL (       1 calls)
     electrons    :     27.01s CPU     79.91s WALL (       1 calls)

     Called by init_run:
     wfcinit      :      1.34s CPU      3.11s WALL (       1 calls)
     potinit      :      0.09s CPU      0.17s WALL (       1 calls)

     Called by electrons:
     c_bands      :     21.89s CPU     65.13s WALL (       7 calls)
     sum_band     :      4.49s CPU     13.36s WALL (       7 calls)
     v_of_rho     :      0.17s CPU      0.34s WALL (       7 calls)
     newd         :      0.06s CPU      0.11s WALL (       7 calls)
     mix_rho      :      0.09s CPU      0.22s WALL (       7 calls)

     Called by c_bands:
     init_us_2    :      0.43s CPU      0.75s WALL (    2175 calls)
     cegterg      :     21.42s CPU     64.37s WALL (    1015 calls)

     Called by *egterg:
     h_psi        :     20.19s CPU     60.02s WALL (    3544 calls)
     s_psi        :      0.10s CPU      0.18s WALL (    3544 calls)
     g_psi        :      0.12s CPU      0.17s WALL (    2384 calls)
     cdiaghg      :      0.77s CPU      2.33s WALL (    3254 calls)

     Called by h_psi:
     add_vuspsi   :      0.17s CPU      0.23s WALL (    3544 calls)

     General routines
     calbec       :      0.60s CPU      2.34s WALL (    4559 calls)
     fft          :      0.10s CPU      0.31s WALL (      93 calls)
     fftw         :     22.05s CPU     67.30s WALL (   38480 calls)
     davcio       :      0.06s CPU      0.14s WALL (    3190 calls)

     Parallel routines
     fft_scatter  :     10.36s CPU     48.82s WALL (   38573 calls)

     PAW routines
     PAW_pot      :      0.37s CPU      0.80s WALL (       7 calls)
     PAW_ddot     :      0.07s CPU      0.15s WALL (      37 calls)
     PAW_symme    :      0.00s CPU      0.01s WALL (      14 calls)

     PWSCF        :  0m29.90s CPU     1m25.35s WALL


   This run was terminated on:   2:32:53  12Jul2015            

=------------------------------------------------------------------------------=
   JOB DONE.
=------------------------------------------------------------------------------=
