
     Program PWSCF v.5.0.2 (svn rev. 9656) starts on 26Jul2015 at  3:37:17 

     This program is part of the open-source Quantum ESPRESSO suite
     for quantum simulation of materials; please cite
         "P. Giannozzi et al., J. Phys.:Condens. Matter 21 395502 (2009);
          URL http://www.quantum-espresso.org", 
     in publications or presentations arising from this work. More details at
     http://www.quantum-espresso.org/quote.php

     Parallel version (MPI), running on     4 processors
     R & G space division:  proc/nbgrp/npool/nimage =       4

     Current dimensions of program PWSCF are:
     Max number of different atomic species (ntypx) = 10
     Max number of k-points (npk) =  40000
     Max angular momentum in pseudopotentials (lmaxx) =  3
     Waiting for input...
     Reading input from standard input
               file C.pbe-rrkjus.UPF: wavefunction(s)  2S 2P renormalized

     Subspace diagonalization in iterative solution of the eigenvalue problem:
     a serial algorithm will be used


     Parallelization info
     --------------------
     sticks:   dense  smooth     PW     G-vecs:    dense   smooth      PW
     Min         211     142     40                58589    32659    5356
     Max         212     143     41                58614    32689    5409
     Sum         847     571    163               234415   130709   21569



     bravais-lattice index     =            0
     lattice parameter (alat)  =       4.6500  a.u.
     unit-cell volume          =    1044.8904 (a.u.)^3
     number of atoms/cell      =            2
     number of atomic types    =            1
     number of electrons       =         8.00
     number of Kohn-Sham states=            8
     kinetic-energy cutoff     =      95.0000  Ry
     charge density cutoff     =     560.0000  Ry
     convergence threshold     =      1.0E-08
     mixing beta               =       0.7000
     number of iterations used =            8  plain     mixing
     Exchange-correlation      =  SLA  PW   PBE  PBE ( 1 4 3 4 0)
     EXX-fraction              =        0.00

     celldm(1)=   4.650000  celldm(2)=   0.000000  celldm(3)=   0.000000
     celldm(4)=   0.000000  celldm(5)=   0.000000  celldm(6)=   0.000000

     crystal axes: (cart. coord. in units of alat)
               a(1) = (   1.000000   0.000000   0.000000 )  
               a(2) = (   0.500000   0.866025   0.000000 )  
               a(3) = (   0.000000   0.000000  12.000000 )  

     reciprocal axes: (cart. coord. in units 2 pi/alat)
               b(1) = (  1.000000 -0.577350  0.000000 )  
               b(2) = (  0.000000  1.154701  0.000000 )  
               b(3) = (  0.000000  0.000000  0.083333 )  


     PseudoPot. # 1 for C  read from file:
     ./C.pbe-rrkjus.UPF
     MD5 check sum: 00fb224312de0c5b6853bd333518df6f
     Pseudo is Ultrasoft, Zval =  4.0
     Generated by new atomic code, or converted to UPF format
     Using radial grid of  627 points,  4 beta functions with: 
                l(1) =   0
                l(2) =   0
                l(3) =   1
                l(4) =   1
     Q(r) pseudized with 0 coefficients 


     atomic species   valence    mass     pseudopotential
        C              4.00    12.00000     C ( 1.00)

     24 Sym. Ops., with inversion, found (12 have fractional translation)



   Cartesian axes

     site n.     atom                  positions (alat units)
         1           C   tau(   1) = (   0.0000000   0.0000000   0.0000000  )
         2           C   tau(   2) = (   1.0000000   0.5773503   0.0000000  )

     number of k points=    14  gaussian smearing, width (Ry)=  0.0010
                       cart. coord. in units 2pi/alat
        k(    1) = (   0.0000000   0.0000000   0.0000000), wk =   0.0200000
        k(    2) = (   0.0000000   0.1154701   0.0000000), wk =   0.1200000
        k(    3) = (   0.0000000   0.2309401   0.0000000), wk =   0.1200000
        k(    4) = (   0.0000000   0.3464102   0.0000000), wk =   0.1200000
        k(    5) = (   0.0000000   0.4618802   0.0000000), wk =   0.1200000
        k(    6) = (   0.0000000  -0.5773503   0.0000000), wk =   0.0600000
        k(    7) = (   0.1000000   0.1732051   0.0000000), wk =   0.1200000
        k(    8) = (   0.1000000   0.2886751   0.0000000), wk =   0.2400000
        k(    9) = (   0.1000000   0.4041452   0.0000000), wk =   0.2400000
        k(   10) = (   0.1000000  -0.6350853   0.0000000), wk =   0.2400000
        k(   11) = (   0.2000000   0.3464102   0.0000000), wk =   0.1200000
        k(   12) = (   0.2000000  -0.6928203   0.0000000), wk =   0.2400000
        k(   13) = (   0.2000000  -0.5773503   0.0000000), wk =   0.1200000
        k(   14) = (   0.3000000  -0.6350853   0.0000000), wk =   0.1200000

     Dense  grid:   234415 G-vectors     FFT dimensions: (  36,  36, 432)

     Smooth grid:   130709 G-vectors     FFT dimensions: (  30,  30, 360)

     Largest allocated arrays     est. size (Mb)     dimensions
        Kohn-Sham Wavefunctions         0.51 Mb     (   4144,    8)
        NL pseudopotentials             1.01 Mb     (   4144,   16)
        Each V/rho on FFT grid          2.14 Mb     ( 139968)
        Each G-vector array             0.45 Mb     (  58604)
        G-vector shells                 0.13 Mb     (  17493)
     Largest temporary arrays     est. size (Mb)     dimensions
        Auxiliary wavefunctions         2.02 Mb     (   4144,   32)
        Each subspace H/S matrix        0.02 Mb     (  32,  32)
        Each <psi_i|beta_j> matrix      0.00 Mb     (     16,    8)
        Arrays for rho mixing          17.09 Mb     ( 139968,   8)

     Initial potential from superposition of free atoms

     starting charge    7.99989, renormalised to    8.00000

     negative rho (up, down):  0.254E-04 0.000E+00
     Starting wfc are    8 randomized atomic wfcs

     total cpu time spent up to now is        4.9 secs

     per-process dynamical memory:    37.5 Mb

     Self-consistent Calculation

     iteration #  1     ecut=    95.00 Ry     beta=0.70
     Davidson diagonalization with overlap
     ethr =  1.00E-02,  avg # of iterations =  5.4

     negative rho (up, down):  0.177E-04 0.000E+00

     total cpu time spent up to now is       17.1 secs

     total energy              =     -22.75996950 Ry
     Harris-Foulkes estimate   =     -22.88449074 Ry
     estimated scf accuracy    <       0.20665900 Ry

     iteration #  2     ecut=    95.00 Ry     beta=0.70
     Davidson diagonalization with overlap
     ethr =  2.58E-03,  avg # of iterations =  4.1

     negative rho (up, down):  0.170E-04 0.000E+00

     total cpu time spent up to now is       27.5 secs

     total energy              =     -22.79118193 Ry
     Harris-Foulkes estimate   =     -22.79131723 Ry
     estimated scf accuracy    <       0.00250103 Ry

     iteration #  3     ecut=    95.00 Ry     beta=0.70
     Davidson diagonalization with overlap
     ethr =  3.13E-05,  avg # of iterations = 10.8

     negative rho (up, down):  0.186E-04 0.000E+00

     total cpu time spent up to now is       44.3 secs

     total energy              =     -22.79151920 Ry
     Harris-Foulkes estimate   =     -22.79148931 Ry
     estimated scf accuracy    <       0.00014101 Ry

     iteration #  4     ecut=    95.00 Ry     beta=0.70
     Davidson diagonalization with overlap
     ethr =  1.76E-06,  avg # of iterations =  4.9

     negative rho (up, down):  0.187E-04 0.000E+00

     total cpu time spent up to now is       55.0 secs

     total energy              =     -22.79152476 Ry
     Harris-Foulkes estimate   =     -22.79152396 Ry
     estimated scf accuracy    <       0.00000085 Ry

     iteration #  5     ecut=    95.00 Ry     beta=0.70
     Davidson diagonalization with overlap
     ethr =  1.06E-08,  avg # of iterations =  2.5

     negative rho (up, down):  0.187E-04 0.000E+00

     total cpu time spent up to now is       65.2 secs

     total energy              =     -22.79152510 Ry
     Harris-Foulkes estimate   =     -22.79152509 Ry
     estimated scf accuracy    <       0.00000003 Ry

     iteration #  6     ecut=    95.00 Ry     beta=0.70
     Davidson diagonalization with overlap
     ethr =  3.26E-10,  avg # of iterations =  2.0

     negative rho (up, down):  0.186E-04 0.000E+00

     total cpu time spent up to now is       74.2 secs

     End of self-consistent calculation

          k = 0.0000 0.0000 0.0000 ( 16331 PWs)   bands (ev):

   -22.4921 -10.6023  -6.0256  -6.0256   0.3035   1.0417   1.2091   1.5614

          k = 0.0000 0.1155 0.0000 ( 16365 PWs)   bands (ev):

   -22.2557 -10.3193  -6.9387  -6.5001   0.6254   1.3690   1.5400   1.8907

          k = 0.0000 0.2309 0.0000 ( 16311 PWs)   bands (ev):

   -21.5500  -9.4817  -9.1125  -7.5180   1.5909   2.3481   2.5329   2.8771

          k = 0.0000 0.3464 0.0000 ( 16320 PWs)   bands (ev):

   -20.3881 -11.7245  -8.5087  -8.1359   2.8941   3.1928   4.0081   4.1875

          k = 0.0000 0.4619 0.0000 ( 16354 PWs)   bands (ev):

   -18.8033 -14.3010  -9.1789  -6.4464   0.2226   4.6045   5.4556   6.2613

          k = 0.0000-0.5774 0.0000 ( 16340 PWs)   bands (ev):

   -17.2303 -16.2216  -9.4125  -5.3196  -1.2676   4.5009   8.1869   8.3397

          k = 0.1000 0.1732 0.0000 ( 16345 PWs)   bands (ev):

   -21.7846  -9.7586  -8.2829  -7.4485   1.2697   2.0226   2.2020   2.5487

          k = 0.1000 0.2887 0.0000 ( 16303 PWs)   bands (ev):

   -20.8509 -10.4395  -8.6937  -8.6626   2.5559   3.3174   3.5259   3.8508

          k = 0.1000 0.4041 0.0000 ( 16318 PWs)   bands (ev):

   -19.4756 -12.9485  -9.6115  -7.1128   1.3919   4.4704   5.2760   5.5105

          k = 0.1000-0.6351 0.0000 ( 16354 PWs)   bands (ev):

   -17.7352 -15.3319 -10.0885  -5.4653  -0.8835   5.5375   7.0159   7.8024

          k = 0.2000 0.3464 0.0000 ( 16279 PWs)   bands (ev):

   -19.7032 -11.9062 -10.4567  -7.3457   1.9671   4.1575   4.9306   5.1808

          k = 0.2000-0.6928 0.0000 ( 16351 PWs)   bands (ev):

   -18.1480 -13.9008 -11.5283  -5.6684  -0.2388   6.3681   7.0574   7.4966

          k = 0.2000-0.5774 0.0000 ( 16384 PWs)   bands (ev):

   -16.6246 -15.6599 -11.8318  -4.4572  -1.6467   7.9217   8.4063   8.9787

          k = 0.3000-0.6351 0.0000 ( 16411 PWs)   bands (ev):

   -16.5136 -14.8219 -13.1730  -3.9787  -1.9348   7.8046   8.7516  10.0944

     the Fermi energy is    -2.1187 ev

!    total energy              =     -22.79152511 Ry
     Harris-Foulkes estimate   =     -22.79152511 Ry
     estimated scf accuracy    <          5.7E-10 Ry

     The total energy is the sum of the following terms:

     one-electron contribution =    -353.76104630 Ry
     hartree contribution      =     177.88979391 Ry
     xc contribution           =      -7.02451414 Ry
     ewald contribution        =     160.10424143 Ry
     smearing contrib. (-TS)   =      -0.00000000 Ry

     convergence has been achieved in   6 iterations

     Writing output data file graphene.save

     init_run     :      4.66s CPU      4.82s WALL (       1 calls)
     electrons    :     66.70s CPU     69.32s WALL (       1 calls)

     Called by init_run:
     wfcinit      :      2.26s CPU      2.31s WALL (       1 calls)
     potinit      :      1.08s CPU      1.12s WALL (       1 calls)

     Called by electrons:
     c_bands      :     48.92s CPU     50.60s WALL (       6 calls)
     sum_band     :     11.72s CPU     12.24s WALL (       6 calls)
     v_of_rho     :      2.57s CPU      2.78s WALL (       7 calls)
     newd         :      2.96s CPU      3.06s WALL (       7 calls)
     mix_rho      :      0.44s CPU      0.48s WALL (       6 calls)

     Called by c_bands:
     init_us_2    :      0.56s CPU      0.69s WALL (     182 calls)
     cegterg      :     48.05s CPU     49.59s WALL (      84 calls)

     Called by *egterg:
     h_psi        :     45.39s CPU     46.82s WALL (     514 calls)
     s_psi        :      0.62s CPU      0.62s WALL (     514 calls)
     g_psi        :      0.24s CPU      0.23s WALL (     416 calls)
     cdiaghg      :      0.24s CPU      0.24s WALL (     500 calls)

     Called by h_psi:
     add_vuspsi   :      0.58s CPU      0.60s WALL (     514 calls)

     General routines
     calbec       :      0.85s CPU      0.88s WALL (     598 calls)
     fft          :      2.40s CPU      2.63s WALL (     107 calls)
     ffts         :      0.18s CPU      0.18s WALL (      13 calls)
     fftw         :     41.44s CPU     43.01s WALL (    5118 calls)
     interpolate  :      0.56s CPU      0.57s WALL (      13 calls)
     davcio       :      0.19s CPU      0.25s WALL (     266 calls)

     Parallel routines
     fft_scatter  :     15.99s CPU     17.67s WALL (    5238 calls)

     PWSCF        :  1m11.66s CPU     1m14.46s WALL


   This run was terminated on:   3:38:32  26Jul2015            

=------------------------------------------------------------------------------=
   JOB DONE.
=------------------------------------------------------------------------------=
