
     Program PWSCF v.5.0.2 (svn rev. 9656) starts on 12Jul2015 at  1:32:18 

     This program is part of the open-source Quantum ESPRESSO suite
     for quantum simulation of materials; please cite
         "P. Giannozzi et al., J. Phys.:Condens. Matter 21 395502 (2009);
          URL http://www.quantum-espresso.org", 
     in publications or presentations arising from this work. More details at
     http://www.quantum-espresso.org/quote.php

     Parallel version (MPI), running on     4 processors
     R & G space division:  proc/nbgrp/npool/nimage =       4

     Current dimensions of program PWSCF are:
     Max number of different atomic species (ntypx) = 10
     Max number of k-points (npk) =  40000
     Max angular momentum in pseudopotentials (lmaxx) =  3
     Waiting for input...
     Reading input from standard input
               file Al.pbe-n-kjpaw_psl.0.1.UPF: wavefunction(s)  3S renormalized

     Subspace diagonalization in iterative solution of the eigenvalue problem:
     a serial algorithm will be used


     Parallelization info
     --------------------
     sticks:   dense  smooth     PW     G-vecs:    dense   smooth      PW
     Min         115     115     37                 1653     1653     309
     Max         116     116     38                 1655     1655     312
     Sum         463     463    151                 6615     6615    1243



     bravais-lattice index     =            2
     lattice parameter (alat)  =       7.5000  a.u.
     unit-cell volume          =     105.4688 (a.u.)^3
     number of atoms/cell      =            1
     number of atomic types    =            1
     number of electrons       =         3.00
     number of Kohn-Sham states=            6
     kinetic-energy cutoff     =      60.0000  Ry
     charge density cutoff     =     240.0000  Ry
     convergence threshold     =      1.0E-07
     mixing beta               =       0.7000
     number of iterations used =            8  plain     mixing
     Exchange-correlation      =  SLA  PW   PBX  PBC ( 1 4 3 4 0)
     EXX-fraction              =        0.00

     celldm(1)=   7.500000  celldm(2)=   0.000000  celldm(3)=   0.000000
     celldm(4)=   0.000000  celldm(5)=   0.000000  celldm(6)=   0.000000

     crystal axes: (cart. coord. in units of alat)
               a(1) = (  -0.500000   0.000000   0.500000 )  
               a(2) = (   0.000000   0.500000   0.500000 )  
               a(3) = (  -0.500000   0.500000   0.000000 )  

     reciprocal axes: (cart. coord. in units 2 pi/alat)
               b(1) = ( -1.000000 -1.000000  1.000000 )  
               b(2) = (  1.000000  1.000000  1.000000 )  
               b(3) = ( -1.000000  1.000000 -1.000000 )  


     PseudoPot. # 1 for Al read from file:
     ./Al.pbe-n-kjpaw_psl.0.1.UPF
     MD5 check sum: 023d9faf819c76fc4df1f064efe7b7b2
     Pseudo is Projector augmented-wave + core cor, Zval =  3.0
     Generated using "atomic" code by A. Dal Corso  v.5.0.2 svn rev. 9415
     Shape of augmentation charge: PSQ
     Using radial grid of 1135 points,  4 beta functions with: 
                l(1) =   0
                l(2) =   0
                l(3) =   1
                l(4) =   1
     Q(r) pseudized with 0 coefficients 


     atomic species   valence    mass     pseudopotential
        Al             3.00    26.98154     Al( 1.00)

     48 Sym. Ops., with inversion, found



   Cartesian axes

     site n.     atom                  positions (alat units)
         1           Al  tau(   1) = (   0.0000000   0.0000000   0.0000000  )

     number of k points=    84  gaussian smearing, width (Ry)=  0.0030
                       cart. coord. in units 2pi/alat
        k(    1) = (   0.0000000   0.0000000   0.0000000), wk =   0.0009103
        k(    2) = (  -0.0769231   0.0769231  -0.0769231), wk =   0.0072827
        k(    3) = (  -0.1538462   0.1538462  -0.1538462), wk =   0.0072827
        k(    4) = (  -0.2307692   0.2307692  -0.2307692), wk =   0.0072827
        k(    5) = (  -0.3076923   0.3076923  -0.3076923), wk =   0.0072827
        k(    6) = (  -0.3846154   0.3846154  -0.3846154), wk =   0.0072827
        k(    7) = (  -0.4615385   0.4615385  -0.4615385), wk =   0.0072827
        k(    8) = (   0.0000000   0.1538462   0.0000000), wk =   0.0054620
        k(    9) = (  -0.0769231   0.2307692  -0.0769231), wk =   0.0218480
        k(   10) = (  -0.1538462   0.3076923  -0.1538462), wk =   0.0218480
        k(   11) = (  -0.2307692   0.3846154  -0.2307692), wk =   0.0218480
        k(   12) = (  -0.3076923   0.4615385  -0.3076923), wk =   0.0218480
        k(   13) = (  -0.3846154   0.5384615  -0.3846154), wk =   0.0218480
        k(   14) = (   0.5384615  -0.3846154   0.5384615), wk =   0.0218480
        k(   15) = (   0.4615385  -0.3076923   0.4615385), wk =   0.0218480
        k(   16) = (   0.3846154  -0.2307692   0.3846154), wk =   0.0218480
        k(   17) = (   0.3076923  -0.1538462   0.3076923), wk =   0.0218480
        k(   18) = (   0.2307692  -0.0769231   0.2307692), wk =   0.0218480
        k(   19) = (   0.1538462   0.0000000   0.1538462), wk =   0.0109240
        k(   20) = (   0.0000000   0.3076923   0.0000000), wk =   0.0054620
        k(   21) = (  -0.0769231   0.3846154  -0.0769231), wk =   0.0218480
        k(   22) = (  -0.1538462   0.4615385  -0.1538462), wk =   0.0218480
        k(   23) = (  -0.2307692   0.5384615  -0.2307692), wk =   0.0218480
        k(   24) = (  -0.3076923   0.6153846  -0.3076923), wk =   0.0218480
        k(   25) = (   0.6153846  -0.3076923   0.6153846), wk =   0.0218480
        k(   26) = (   0.5384615  -0.2307692   0.5384615), wk =   0.0218480
        k(   27) = (   0.4615385  -0.1538462   0.4615385), wk =   0.0218480
        k(   28) = (   0.3846154  -0.0769231   0.3846154), wk =   0.0218480
        k(   29) = (   0.3076923   0.0000000   0.3076923), wk =   0.0109240
        k(   30) = (   0.0000000   0.4615385   0.0000000), wk =   0.0054620
        k(   31) = (  -0.0769231   0.5384615  -0.0769231), wk =   0.0218480
        k(   32) = (  -0.1538462   0.6153846  -0.1538462), wk =   0.0218480
        k(   33) = (  -0.2307692   0.6923077  -0.2307692), wk =   0.0218480
        k(   34) = (   0.6923077  -0.2307692   0.6923077), wk =   0.0218480
        k(   35) = (   0.6153846  -0.1538462   0.6153846), wk =   0.0218480
        k(   36) = (   0.5384615  -0.0769231   0.5384615), wk =   0.0218480
        k(   37) = (   0.4615385   0.0000000   0.4615385), wk =   0.0109240
        k(   38) = (   0.0000000   0.6153846   0.0000000), wk =   0.0054620
        k(   39) = (  -0.0769231   0.6923077  -0.0769231), wk =   0.0218480
        k(   40) = (  -0.1538462   0.7692308  -0.1538462), wk =   0.0218480
        k(   41) = (   0.7692308  -0.1538462   0.7692308), wk =   0.0218480
        k(   42) = (   0.6923077  -0.0769231   0.6923077), wk =   0.0218480
        k(   43) = (   0.6153846   0.0000000   0.6153846), wk =   0.0109240
        k(   44) = (   0.0000000   0.7692308   0.0000000), wk =   0.0054620
        k(   45) = (  -0.0769231   0.8461538  -0.0769231), wk =   0.0218480
        k(   46) = (   0.8461538  -0.0769231   0.8461538), wk =   0.0218480
        k(   47) = (   0.7692308   0.0000000   0.7692308), wk =   0.0109240
        k(   48) = (   0.0000000   0.9230769   0.0000000), wk =   0.0054620
        k(   49) = (   0.9230769   0.0000000   0.9230769), wk =   0.0109240
        k(   50) = (  -0.1538462   0.3076923   0.0000000), wk =   0.0218480
        k(   51) = (  -0.2307692   0.3846154  -0.0769231), wk =   0.0436959
        k(   52) = (  -0.3076923   0.4615385  -0.1538462), wk =   0.0436959
        k(   53) = (  -0.3846154   0.5384615  -0.2307692), wk =   0.0436959
        k(   54) = (   0.5384615  -0.3846154   0.6923077), wk =   0.0436959
        k(   55) = (  -0.1538462   0.4615385   0.0000000), wk =   0.0218480
        k(   56) = (  -0.2307692   0.5384615  -0.0769231), wk =   0.0436959
        k(   57) = (  -0.3076923   0.6153846  -0.1538462), wk =   0.0436959
        k(   58) = (   0.6153846  -0.3076923   0.7692308), wk =   0.0436959
        k(   59) = (   0.5384615  -0.2307692   0.6923077), wk =   0.0436959
        k(   60) = (   0.4615385  -0.1538462   0.6153846), wk =   0.0436959
        k(   61) = (   0.3846154  -0.0769231   0.5384615), wk =   0.0436959
        k(   62) = (   0.3076923   0.0000000   0.4615385), wk =   0.0218480
        k(   63) = (  -0.1538462   0.6153846   0.0000000), wk =   0.0218480
        k(   64) = (  -0.2307692   0.6923077  -0.0769231), wk =   0.0436959
        k(   65) = (   0.6923077  -0.2307692   0.8461538), wk =   0.0436959
        k(   66) = (   0.6153846  -0.1538462   0.7692308), wk =   0.0436959
        k(   67) = (   0.5384615  -0.0769231   0.6923077), wk =   0.0436959
        k(   68) = (   0.4615385   0.0000000   0.6153846), wk =   0.0218480
        k(   69) = (  -0.1538462   0.7692308   0.0000000), wk =   0.0218480
        k(   70) = (   0.7692308  -0.1538462   0.9230769), wk =   0.0436959
        k(   71) = (   0.6923077  -0.0769231   0.8461538), wk =   0.0436959
        k(   72) = (   0.6153846   0.0000000   0.7692308), wk =   0.0218480
        k(   73) = (   0.8461538  -0.0769231   1.0000000), wk =   0.0218480
        k(   74) = (   0.7692308   0.0000000   0.9230769), wk =   0.0218480
        k(   75) = (  -0.3076923   0.6153846   0.0000000), wk =   0.0218480
        k(   76) = (   0.6153846  -0.3076923   0.9230769), wk =   0.0436959
        k(   77) = (   0.5384615  -0.2307692   0.8461538), wk =   0.0436959
        k(   78) = (   0.6923077  -0.2307692   1.0000000), wk =   0.0218480
        k(   79) = (   0.6153846  -0.1538462   0.9230769), wk =   0.0436959
        k(   80) = (   0.5384615  -0.0769231   0.8461538), wk =   0.0436959
        k(   81) = (   0.4615385   0.0000000   0.7692308), wk =   0.0218480
        k(   82) = (   0.6923077  -0.0769231   1.0000000), wk =   0.0218480
        k(   83) = (   0.6153846   0.0000000   0.9230769), wk =   0.0218480
        k(   84) = (   0.5384615  -0.0769231   1.0000000), wk =   0.0218480

     Dense  grid:     6615 G-vectors     FFT dimensions: (  27,  27,  27)

     Largest allocated arrays     est. size (Mb)     dimensions
        Kohn-Sham Wavefunctions         0.02 Mb     (    222,    6)
        NL pseudopotentials             0.03 Mb     (    222,    8)
        Each V/rho on FFT grid          0.08 Mb     (   5103)
        Each G-vector array             0.01 Mb     (   1655)
        G-vector shells                 0.00 Mb     (    115)
     Largest temporary arrays     est. size (Mb)     dimensions
        Auxiliary wavefunctions         0.08 Mb     (    222,   24)
        Each subspace H/S matrix        0.01 Mb     (  24,  24)
        Each <psi_i|beta_j> matrix      0.00 Mb     (      8,    6)
        Arrays for rho mixing           0.62 Mb     (   5103,   8)

     Initial potential from superposition of free atoms

     starting charge    2.99771, renormalised to    3.00000
     Starting wfc are    4 randomized atomic wfcs
     Checking if some PAW data can be deallocated... 

     total cpu time spent up to now is        1.1 secs

     per-process dynamical memory:     9.0 Mb

     Self-consistent Calculation

     iteration #  1     ecut=    60.00 Ry     beta=0.70
     Davidson diagonalization with overlap
     ethr =  1.00E-02,  avg # of iterations =  4.8

     Threshold (ethr) on eigenvalues was too large:
     Diagonalizing with lowered threshold

     Davidson diagonalization with overlap
     ethr =  1.97E-04,  avg # of iterations =  2.2

     total cpu time spent up to now is        3.6 secs

     total energy              =     -39.50194770 Ry
     Harris-Foulkes estimate   =     -39.50330699 Ry
     estimated scf accuracy    <       0.00562915 Ry

     iteration #  2     ecut=    60.00 Ry     beta=0.70
     Davidson diagonalization with overlap
     ethr =  1.88E-04,  avg # of iterations =  1.0

     total cpu time spent up to now is        4.5 secs

     total energy              =     -39.50190037 Ry
     Harris-Foulkes estimate   =     -39.50200764 Ry
     estimated scf accuracy    <       0.00042153 Ry

     iteration #  3     ecut=    60.00 Ry     beta=0.70
     Davidson diagonalization with overlap
     ethr =  1.41E-05,  avg # of iterations =  1.8

     total cpu time spent up to now is        5.4 secs

     total energy              =     -39.50191779 Ry
     Harris-Foulkes estimate   =     -39.50191825 Ry
     estimated scf accuracy    <       0.00000114 Ry

     iteration #  4     ecut=    60.00 Ry     beta=0.70
     Davidson diagonalization with overlap
     ethr =  3.80E-08,  avg # of iterations =  3.1

     total cpu time spent up to now is        6.5 secs

     End of self-consistent calculation

          k = 0.0000 0.0000 0.0000 (   869 PWs)   bands (ev):

    -3.0418  21.4073  21.4074  23.2810  23.2812  23.2812

          k =-0.0769 0.0769-0.0769 (   857 PWs)   bands (ev):

    -2.8750  19.0524  20.9544  20.9544  23.8312  23.9956

          k =-0.1538 0.1538-0.1538 (   833 PWs)   bands (ev):

    -2.3761  15.8568  20.3084  20.3084  23.6464  25.1699

          k =-0.2308 0.2308-0.2308 (   833 PWs)   bands (ev):

    -1.5486  12.7695  19.8518  19.8518  23.3856  24.1214

          k =-0.3077 0.3077-0.3077 (   827 PWs)   bands (ev):

    -0.3984   9.8957  19.6468  19.6468  22.7298  22.7299

          k =-0.3846 0.3846-0.3846 (   832 PWs)   bands (ev):

     1.0661   7.2733  19.7077  19.7077  21.5727  21.5727

          k =-0.4615 0.4615-0.4615 (   826 PWs)   bands (ev):

     2.8288   4.9297  20.0287  20.0287  20.6983  20.6983

          k = 0.0000 0.1538 0.0000 (   857 PWs)   bands (ev):

    -2.8195  19.9110  19.9110  20.0820  22.7706  25.1056

          k =-0.0769 0.2308-0.0769 (   842 PWs)   bands (ev):

    -2.4314  16.9867  19.0709  20.2612  23.0908  24.1650

          k =-0.1538 0.3077-0.1538 (   836 PWs)   bands (ev):

    -1.7137  13.8867  18.4889  19.9601  22.3144  24.5974

          k =-0.2308 0.3846-0.2308 (   836 PWs)   bands (ev):

    -0.6714  10.9524  18.1780  19.7003  20.7922  25.0412

          k =-0.3077 0.4615-0.3077 (   834 PWs)   bands (ev):

     0.6879   8.2513  18.1429  19.3242  19.8776  23.6874

          k =-0.3846 0.5385-0.3846 (   824 PWs)   bands (ev):

     2.3526   5.8154  18.3864  18.4018  20.0614  22.7165

          k = 0.5385-0.3846 0.5385 (   825 PWs)   bands (ev):

     3.5965   4.3780  17.6878  18.9107  20.6059  22.0109

          k = 0.4615-0.3077 0.4615 (   827 PWs)   bands (ev):

     1.7650   6.5952  17.2541  19.7172  21.4398  21.5757

          k = 0.3846-0.2308 0.3846 (   832 PWs)   bands (ev):

     0.2002   9.1208  17.1085  20.8041  21.4078  22.5437

          k = 0.3077-0.1538 0.3077 (   834 PWs)   bands (ev):

    -1.0545  11.8980  17.2548  21.4934  22.1592  23.8674

          k = 0.2308-0.0769 0.2308 (   831 PWs)   bands (ev):

    -1.9893  14.8714  17.7074  21.7726  23.6670  24.4720

          k = 0.1538 0.0000 0.1538 (   839 PWs)   bands (ev):

    -2.5976  17.6945  18.7062  21.8399  23.5611  24.3916

          k = 0.0000 0.3077 0.0000 (   841 PWs)   bands (ev):

    -2.1549  18.1021  18.1021  18.1153  21.5912  22.0505

          k =-0.0769 0.3846-0.0769 (   842 PWs)   bands (ev):

    -1.5486  15.2027  17.4105  18.6253  20.1075  21.8692

          k =-0.1538 0.4615-0.1538 (   836 PWs)   bands (ev):

    -0.6169  12.2701  16.9980  18.1925  18.8060  23.4244

          k =-0.2308 0.5385-0.2308 (   827 PWs)   bands (ev):

     0.6334   9.5164  16.8653  16.9105  18.6444  25.4810

          k =-0.3077 0.6154-0.3077 (   823 PWs)   bands (ev):

     2.1921   7.0055  15.7986  17.0134  18.8324  25.0256

          k = 0.6154-0.3077 0.6154 (   825 PWs)   bands (ev):

     4.0116   4.8018  14.9674  17.4434  19.3164  24.2410

          k = 0.5385-0.2308 0.5385 (   828 PWs)   bands (ev):

     2.7783   6.2219  14.4340  18.1565  20.0947  23.7172

          k = 0.4615-0.1538 0.4615 (   823 PWs)   bands (ev):

     1.1198   8.6286  14.2132  19.1525  21.1553  23.4516

          k = 0.3846-0.0769 0.3846 (   829 PWs)   bands (ev):

    -0.2350  11.2433  14.3490  20.4264  22.4728  23.3988

          k = 0.3077 0.0000 0.3077 (   837 PWs)   bands (ev):

    -1.2739  13.6646  15.2059  21.9572  23.1326  23.9873

          k = 0.0000 0.4615 0.0000 (   833 PWs)   bands (ev):

    -1.0546  16.4203  16.6162  16.6162  17.9594  20.3892

          k =-0.0769 0.5385-0.0769 (   830 PWs)   bands (ev):

    -0.2354  13.7849  16.1048  16.1227  17.3111  20.7067

          k =-0.1538 0.6154-0.1538 (   829 PWs)   bands (ev):

     0.9027  11.0393  14.6069  15.8753  17.4601  22.4219

          k =-0.2308 0.6923-0.2308 (   819 PWs)   bands (ev):

     2.3500   8.4800  13.3672  15.9274  17.6359  24.7169

          k = 0.6923-0.2308 0.6923 (   829 PWs)   bands (ev):

     4.0853   6.1768  12.4245  16.2615  18.0549  26.7364

          k = 0.6154-0.1538 0.6154 (   831 PWs)   bands (ev):

     4.0938   6.1501  11.7996  16.8787  18.7612  26.1365

          k = 0.5385-0.0769 0.5385 (   825 PWs)   bands (ev):

     2.3532   8.3765  11.5485  17.7796  19.7546  25.7714

          k = 0.4615 0.0000 0.4615 (   831 PWs)   bands (ev):

     0.9039  10.4021  12.0834  18.9637  21.0123  25.2683

          k = 0.0000 0.6154 0.0000 (   833 PWs)   bands (ev):

     0.4700  14.1834  15.1211  15.4964  15.4964  19.3017

          k =-0.0769 0.6923-0.0769 (   826 PWs)   bands (ev):

     1.4931  12.4288  12.8732  15.1708  16.2612  19.7949

          k =-0.1538 0.7692-0.1538 (   827 PWs)   bands (ev):

     2.8236  10.1658  11.2412  15.1272  16.6183  21.7104

          k = 0.7692-0.1538 0.7692 (   823 PWs)   bands (ev):

     4.4393   7.8399  10.1701  15.3653  17.0107  24.2177

          k = 0.6923-0.0769 0.6923 (   827 PWs)   bands (ev):

     5.6736   6.3550   9.4886  15.8861  17.6479  26.9465

          k = 0.6154 0.0000 0.6154 (   820 PWs)   bands (ev):

     3.8891   7.9572   9.6120  16.6906  18.5666  28.2017

          k = 0.0000 0.7692 0.0000 (   818 PWs)   bands (ev):

     2.3977  10.7406  14.2472  14.7497  14.7497  18.5216

          k =-0.0769 0.8462-0.0769 (   817 PWs)   bands (ev):

     3.6013   9.2644  12.1812  14.6108  15.6364  19.2204

          k = 0.8462-0.0769 0.8462 (   820 PWs)   bands (ev):

     5.0527   8.1264   9.8838  14.7534  16.1925  21.3435

          k = 0.7692 0.0000 0.7692 (   824 PWs)   bands (ev):

     6.3320   7.3733   8.1584  15.1782  16.7992  24.0463

          k = 0.0000 0.9231 0.0000 (   810 PWs)   bands (ev):

     4.6387   7.7395  13.8086  14.3767  14.3767  18.1166

          k = 0.9231 0.0000 0.9231 (   820 PWs)   bands (ev):

     5.5213   6.9681  11.9730  14.4242  15.4277  19.0248

          k =-0.1538 0.3077 0.0000 (   838 PWs)   bands (ev):

    -1.9341  15.6954  16.9585  20.8327  22.1761  22.9477

          k =-0.2308 0.3846-0.0769 (   834 PWs)   bands (ev):

    -1.1093  13.0643  16.0398  20.4307  21.0422  24.0850

          k =-0.3077 0.4615-0.1538 (   831 PWs)   bands (ev):

     0.0370  10.2682  15.7416  18.9451  20.9886  24.2149

          k =-0.3846 0.5385-0.2308 (   825 PWs)   bands (ev):

     1.4964   7.6744  15.7667  17.7410  21.1080  23.0649

          k = 0.5385-0.3846 0.6923 (   822 PWs)   bands (ev):

     3.2513   5.3466  16.0537  16.8647  21.4727  22.1594

          k =-0.1538 0.4615 0.0000 (   838 PWs)   bands (ev):

    -0.8356  14.0737  15.4376  18.2281  19.3476  21.7646

          k =-0.2308 0.5385-0.0769 (   835 PWs)   bands (ev):

     0.1997  11.6389  14.6530  16.6362  19.7867  23.0512

          k =-0.3077 0.6154-0.1538 (   824 PWs)   bands (ev):

     1.5492   9.0322  14.4660  15.3783  19.9534  24.9973

          k = 0.6154-0.3077 0.7692 (   826 PWs)   bands (ev):

     3.1997   6.6355  14.0669  14.9647  20.2812  24.5153

          k = 0.5385-0.2308 0.6923 (   826 PWs)   bands (ev):

     4.4286   5.2149  13.4062  15.4234  20.8623  23.8006

          k = 0.4615-0.1538 0.6154 (   828 PWs)   bands (ev):

     2.6189   7.3878  13.0016  16.2426  21.7083  23.3273

          k = 0.3846-0.0769 0.5385 (   828 PWs)   bands (ev):

     1.0656   9.8116  12.9532  17.3645  22.7514  23.0938

          k = 0.3077 0.0000 0.4615 (   835 PWs)   bands (ev):

    -0.1806  12.0343  13.6569  18.7711  22.4930  23.8862

          k =-0.1538 0.6154 0.0000 (   834 PWs)   bands (ev):

     0.6865  12.8498  14.0102  14.7321  18.1698  20.7444

          k =-0.2308 0.6923-0.0769 (   824 PWs)   bands (ev):

     1.9224  10.6049  12.8439  13.8782  18.8165  22.2102

          k = 0.6923-0.2308 0.8462 (   824 PWs)   bands (ev):

     3.4591   8.1983  11.7801  13.8744  19.1902  24.5194

          k = 0.6154-0.1538 0.7692 (   824 PWs)   bands (ev):

     5.2379   6.0432  10.9655  14.2817  19.7226  26.2575

          k = 0.5385-0.0769 0.6923 (   827 PWs)   bands (ev):

     4.0444   7.3485  10.5116  15.0124  20.5062  25.7680

          k = 0.4615 0.0000 0.6154 (   824 PWs)   bands (ev):

     2.4059   9.1788  10.8488  16.0448  21.5487  24.9556

          k =-0.1538 0.7692 0.0000 (   825 PWs)   bands (ev):

     2.6109  10.9189  12.0312  13.6042  17.3738  20.0120

          k = 0.7692-0.1538 0.9231 (   822 PWs)   bands (ev):

     4.0219   9.5542  10.1440  13.1816  18.2209  21.6764

          k = 0.6923-0.0769 0.8462 (   820 PWs)   bands (ev):

     5.6676   7.7197   8.9053  13.4499  18.7977  24.1964

          k = 0.6154 0.0000 0.7692 (   819 PWs)   bands (ev):

     5.7510   7.1440   8.7730  14.0755  19.5308  26.9320

          k = 0.8462-0.0769 1.0000 (   816 PWs)   bands (ev):

     4.8460   7.9432  11.6212  13.1916  16.9742  19.6324

          k = 0.7692 0.0000 0.9231 (   823 PWs)   bands (ev):

     5.9265   7.3756   9.8421  12.9724  18.0209  21.4944

          k =-0.3077 0.6154 0.0000 (   836 PWs)   bands (ev):

     1.3340  10.8100  12.4209  15.1241  21.4027  23.3640

          k = 0.6154-0.3077 0.9231 (   826 PWs)   bands (ev):

     2.7764   8.7822  11.8874  13.9036  22.1513  24.1709

          k = 0.5385-0.2308 0.8462 (   825 PWs)   bands (ev):

     4.5052   6.5630  12.0391  13.0644  22.6228  23.4084

          k = 0.6923-0.2308 1.0000 (   821 PWs)   bands (ev):

     3.2480   9.9935  11.1583  12.1609  20.6275  22.7437

          k = 0.6154-0.1538 0.9231 (   823 PWs)   bands (ev):

     4.8576   8.1531  10.3881  11.5957  21.5945  24.6099

          k = 0.5385-0.0769 0.8462 (   828 PWs)   bands (ev):

     6.0673   6.7598   9.8310  11.9428  22.3003  25.2865

          k = 0.4615 0.0000 0.7692 (   828 PWs)   bands (ev):

     4.3017   8.3640   9.9725  12.7512  23.1506  24.2518

          k = 0.6923-0.0769 1.0000 (   821 PWs)   bands (ev):

     5.4659   8.5284   9.5853  11.4054  20.2335  22.4069

          k = 0.6154 0.0000 0.9231 (   826 PWs)   bands (ev):

     6.7378   7.7649   8.4311  11.2710  21.4039  24.4993

          k = 0.5385-0.0769 1.0000 (   824 PWs)   bands (ev):

     6.4886   7.9569   9.0993  10.2697  23.8749  24.8786

     the Fermi energy is     8.4010 ev

!    total energy              =     -39.50191886 Ry
     Harris-Foulkes estimate   =     -39.50191890 Ry
     estimated scf accuracy    <       0.00000007 Ry

     total all-electron energy =      -485.644701 Ry

     The total energy is the sum of the following terms:

     one-electron contribution =       3.29515304 Ry
     hartree contribution      =       0.00633690 Ry
     xc contribution           =      -3.05974936 Ry
     ewald contribution        =      -5.50183449 Ry
     one-center paw contrib.   =     -34.24179277 Ry
     smearing contrib. (-TS)   =      -0.00003217 Ry

     convergence has been achieved in   4 iterations

     Writing output data file Al.save

     init_run     :      0.62s CPU      0.68s WALL (       1 calls)
     electrons    :      5.25s CPU      5.44s WALL (       1 calls)

     Called by init_run:
     wfcinit      :      0.30s CPU      0.33s WALL (       1 calls)
     potinit      :      0.06s CPU      0.07s WALL (       1 calls)

     Called by electrons:
     c_bands      :      4.22s CPU      4.37s WALL (       5 calls)
     sum_band     :      0.75s CPU      0.77s WALL (       5 calls)
     v_of_rho     :      0.04s CPU      0.04s WALL (       5 calls)
     newd         :      0.02s CPU      0.02s WALL (       5 calls)
     mix_rho      :      0.02s CPU      0.02s WALL (       5 calls)

     Called by c_bands:
     init_us_2    :      0.17s CPU      0.13s WALL (     924 calls)
     cegterg      :      4.09s CPU      4.23s WALL (     420 calls)

     Called by *egterg:
     h_psi        :      3.68s CPU      3.84s WALL (    1591 calls)
     s_psi        :      0.04s CPU      0.03s WALL (    1591 calls)
     g_psi        :      0.02s CPU      0.03s WALL (    1087 calls)
     cdiaghg      :      0.33s CPU      0.29s WALL (    1423 calls)

     Called by h_psi:
     add_vuspsi   :      0.04s CPU      0.04s WALL (    1591 calls)

     General routines
     calbec       :      0.06s CPU      0.08s WALL (    2011 calls)
     fft          :      0.03s CPU      0.03s WALL (      67 calls)
     fftw         :      4.06s CPU      3.97s WALL (   16914 calls)
     davcio       :      0.02s CPU      0.03s WALL (    1344 calls)

     Parallel routines
     fft_scatter  :      0.54s CPU      0.77s WALL (   16981 calls)

     PAW routines
     PAW_pot      :      0.25s CPU      0.26s WALL (       5 calls)
     PAW_ddot     :      0.02s CPU      0.02s WALL (      12 calls)
     PAW_symme    :      0.00s CPU      0.00s WALL (      10 calls)

     PWSCF        :     6.60s CPU         6.89s WALL


   This run was terminated on:   1:32:25  12Jul2015            

=------------------------------------------------------------------------------=
   JOB DONE.
=------------------------------------------------------------------------------=
