
     Program PWSCF v.5.0.2 (svn rev. 9656) starts on 26Jul2015 at  2:18:40 

     This program is part of the open-source Quantum ESPRESSO suite
     for quantum simulation of materials; please cite
         "P. Giannozzi et al., J. Phys.:Condens. Matter 21 395502 (2009);
          URL http://www.quantum-espresso.org", 
     in publications or presentations arising from this work. More details at
     http://www.quantum-espresso.org/quote.php

     Parallel version (MPI), running on     4 processors
     R & G space division:  proc/nbgrp/npool/nimage =       4

     Current dimensions of program PWSCF are:
     Max number of different atomic species (ntypx) = 10
     Max number of k-points (npk) =  40000
     Max angular momentum in pseudopotentials (lmaxx) =  3
     Waiting for input...
     Reading input from standard input
               file C.pbe-rrkjus.UPF: wavefunction(s)  2S 2P renormalized

     Subspace diagonalization in iterative solution of the eigenvalue problem:
     a serial algorithm will be used


     Parallelization info
     --------------------
     sticks:   dense  smooth     PW     G-vecs:    dense   smooth      PW
     Min         211      90     29                58589    16424    2956
     Max         212      91     31                58614    16459    2973
     Sum         847     361    121               234415    65771   11867



     bravais-lattice index     =            0
     lattice parameter (alat)  =       4.6500  a.u.
     unit-cell volume          =    1044.8904 (a.u.)^3
     number of atoms/cell      =            2
     number of atomic types    =            1
     number of electrons       =         8.00
     number of Kohn-Sham states=            8
     kinetic-energy cutoff     =      60.0000  Ry
     charge density cutoff     =     560.0000  Ry
     convergence threshold     =      1.0E-08
     mixing beta               =       0.7000
     number of iterations used =            8  plain     mixing
     Exchange-correlation      =  SLA  PW   PBE  PBE ( 1 4 3 4 0)
     EXX-fraction              =        0.00

     celldm(1)=   4.650000  celldm(2)=   0.000000  celldm(3)=   0.000000
     celldm(4)=   0.000000  celldm(5)=   0.000000  celldm(6)=   0.000000

     crystal axes: (cart. coord. in units of alat)
               a(1) = (   1.000000   0.000000   0.000000 )  
               a(2) = (   0.500000   0.866025   0.000000 )  
               a(3) = (   0.000000   0.000000  12.000000 )  

     reciprocal axes: (cart. coord. in units 2 pi/alat)
               b(1) = (  1.000000 -0.577350  0.000000 )  
               b(2) = (  0.000000  1.154701  0.000000 )  
               b(3) = (  0.000000  0.000000  0.083333 )  


     PseudoPot. # 1 for C  read from file:
     ./C.pbe-rrkjus.UPF
     MD5 check sum: 00fb224312de0c5b6853bd333518df6f
     Pseudo is Ultrasoft, Zval =  4.0
     Generated by new atomic code, or converted to UPF format
     Using radial grid of  627 points,  4 beta functions with: 
                l(1) =   0
                l(2) =   0
                l(3) =   1
                l(4) =   1
     Q(r) pseudized with 0 coefficients 


     atomic species   valence    mass     pseudopotential
        C              4.00    12.00000     C ( 1.00)

     24 Sym. Ops., with inversion, found (12 have fractional translation)



   Cartesian axes

     site n.     atom                  positions (alat units)
         1           C   tau(   1) = (   0.0000000   0.0000000   0.0000000  )
         2           C   tau(   2) = (   1.0000000   0.5773503   0.0000000  )

     number of k points=    24  gaussian smearing, width (Ry)=  0.0010
                       cart. coord. in units 2pi/alat
        k(    1) = (   0.0000000   0.0000000   0.0000000), wk =   0.0102041
        k(    2) = (   0.0000000   0.0824786   0.0000000), wk =   0.0612245
        k(    3) = (   0.0000000   0.1649572   0.0000000), wk =   0.0612245
        k(    4) = (   0.0000000   0.2474358   0.0000000), wk =   0.0612245
        k(    5) = (   0.0000000   0.3299144   0.0000000), wk =   0.0612245
        k(    6) = (   0.0000000   0.4123931   0.0000000), wk =   0.0612245
        k(    7) = (   0.0000000   0.4948717   0.0000000), wk =   0.0612245
        k(    8) = (   0.0000000  -0.5773503   0.0000000), wk =   0.0306122
        k(    9) = (   0.0714286   0.1237179   0.0000000), wk =   0.0612245
        k(   10) = (   0.0714286   0.2061965   0.0000000), wk =   0.1224490
        k(   11) = (   0.0714286   0.2886751   0.0000000), wk =   0.1224490
        k(   12) = (   0.0714286   0.3711537   0.0000000), wk =   0.1224490
        k(   13) = (   0.0714286   0.4536324   0.0000000), wk =   0.1224490
        k(   14) = (   0.0714286  -0.6185896   0.0000000), wk =   0.1224490
        k(   15) = (   0.1428571   0.2474358   0.0000000), wk =   0.0612245
        k(   16) = (   0.1428571   0.3299144   0.0000000), wk =   0.1224490
        k(   17) = (   0.1428571   0.4123931   0.0000000), wk =   0.1224490
        k(   18) = (   0.1428571  -0.6598289   0.0000000), wk =   0.1224490
        k(   19) = (   0.1428571  -0.5773503   0.0000000), wk =   0.0612245
        k(   20) = (   0.2142857   0.3711537   0.0000000), wk =   0.0612245
        k(   21) = (   0.2142857  -0.7010682   0.0000000), wk =   0.1224490
        k(   22) = (   0.2142857  -0.6185896   0.0000000), wk =   0.1224490
        k(   23) = (   0.2857143  -0.6598289   0.0000000), wk =   0.0612245
        k(   24) = (   0.2857143  -0.5773503   0.0000000), wk =   0.0612245

     Dense  grid:   234415 G-vectors     FFT dimensions: (  36,  36, 432)

     Smooth grid:    65771 G-vectors     FFT dimensions: (  24,  24, 288)

     Largest allocated arrays     est. size (Mb)     dimensions
        Kohn-Sham Wavefunctions         0.25 Mb     (   2080,    8)
        NL pseudopotentials             0.51 Mb     (   2080,   16)
        Each V/rho on FFT grid          2.14 Mb     ( 139968)
        Each G-vector array             0.45 Mb     (  58604)
        G-vector shells                 0.13 Mb     (  17407)
     Largest temporary arrays     est. size (Mb)     dimensions
        Auxiliary wavefunctions         1.02 Mb     (   2080,   32)
        Each subspace H/S matrix        0.02 Mb     (  32,  32)
        Each <psi_i|beta_j> matrix      0.00 Mb     (     16,    8)
        Arrays for rho mixing          17.09 Mb     ( 139968,   8)

     Initial potential from superposition of free atoms

     starting charge    7.99989, renormalised to    8.00000

     negative rho (up, down):  0.254E-04 0.000E+00
     Starting wfc are    8 randomized atomic wfcs

     total cpu time spent up to now is        4.1 secs

     per-process dynamical memory:    36.6 Mb

     Self-consistent Calculation

     iteration #  1     ecut=    60.00 Ry     beta=0.70
     Davidson diagonalization with overlap
     ethr =  1.00E-02,  avg # of iterations =  5.2

     negative rho (up, down):  0.174E-04 0.000E+00

     total cpu time spent up to now is       16.0 secs

     total energy              =     -22.75962485 Ry
     Harris-Foulkes estimate   =     -22.88408350 Ry
     estimated scf accuracy    <       0.20656727 Ry

     iteration #  2     ecut=    60.00 Ry     beta=0.70
     Davidson diagonalization with overlap
     ethr =  2.58E-03,  avg # of iterations =  4.0

     negative rho (up, down):  0.168E-04 0.000E+00

     total cpu time spent up to now is       25.3 secs

     total energy              =     -22.79075412 Ry
     Harris-Foulkes estimate   =     -22.79089011 Ry
     estimated scf accuracy    <       0.00251383 Ry

     iteration #  3     ecut=    60.00 Ry     beta=0.70
     Davidson diagonalization with overlap
     ethr =  3.14E-05,  avg # of iterations = 10.9

     negative rho (up, down):  0.186E-04 0.000E+00

     total cpu time spent up to now is       40.1 secs

     total energy              =     -22.79111351 Ry
     Harris-Foulkes estimate   =     -22.79108333 Ry
     estimated scf accuracy    <       0.00013658 Ry

     iteration #  4     ecut=    60.00 Ry     beta=0.70
     Davidson diagonalization with overlap
     ethr =  1.71E-06,  avg # of iterations =  4.8

     negative rho (up, down):  0.187E-04 0.000E+00

     total cpu time spent up to now is       49.6 secs

     total energy              =     -22.79111895 Ry
     Harris-Foulkes estimate   =     -22.79111811 Ry
     estimated scf accuracy    <       0.00000096 Ry

     iteration #  5     ecut=    60.00 Ry     beta=0.70
     Davidson diagonalization with overlap
     ethr =  1.20E-08,  avg # of iterations =  2.5

     negative rho (up, down):  0.187E-04 0.000E+00

     total cpu time spent up to now is       58.9 secs

     total energy              =     -22.79111930 Ry
     Harris-Foulkes estimate   =     -22.79111929 Ry
     estimated scf accuracy    <       0.00000003 Ry

     iteration #  6     ecut=    60.00 Ry     beta=0.70
     Davidson diagonalization with overlap
     ethr =  3.13E-10,  avg # of iterations =  2.0

     negative rho (up, down):  0.186E-04 0.000E+00

     total cpu time spent up to now is       67.3 secs

     End of self-consistent calculation

          k = 0.0000 0.0000 0.0000 (  8165 PWs)   bands (ev):

   -22.4915 -10.6018  -6.0246  -6.0246   0.3036   1.0417   1.2090   1.5613

          k = 0.0000 0.0825 0.0000 (  8188 PWs)   bands (ev):

   -22.3708 -10.4572  -6.5068  -6.2785   0.4679   1.2088   1.3779   1.7293

          k = 0.0000 0.1650 0.0000 (  8222 PWs)   bands (ev):

   -22.0096 -10.0261  -7.7704  -6.9081   0.9607   1.7093   1.8845   2.2332

          k = 0.0000 0.2474 0.0000 (  8216 PWs)   bands (ev):

   -21.4109  -9.4726  -9.3182  -7.6699   1.7812   2.5403   2.7288   3.0712

          k = 0.0000 0.3299 0.0000 (  8216 PWs)   bands (ev):

   -20.5806 -11.3448  -8.3816  -8.3550   2.9259   3.2624   3.7638   3.9107

          k = 0.0000 0.4124 0.0000 (  8212 PWs)   bands (ev):

   -19.5294 -13.2204  -8.9401  -7.1884   1.3271   4.3610   4.7807   5.2143

          k = 0.0000 0.4949 0.0000 (  8218 PWs)   bands (ev):

   -18.2867 -14.9854  -9.2918  -5.9772  -0.4214   4.5579   6.1957   7.0213

          k = 0.0000-0.5774 0.0000 (  8248 PWs)   bands (ev):

   -17.2296 -16.2209  -9.4115  -5.3190  -1.2670   4.5016   8.1870   8.3399

          k = 0.0714 0.1237 0.0000 (  8197 PWs)   bands (ev):

   -22.1299 -10.1693  -7.3142  -6.7865   0.7965   1.5426   1.7156   2.0652

          k = 0.0714 0.2062 0.0000 (  8197 PWs)   bands (ev):

   -21.6499  -9.5994  -8.6897  -7.5918   1.4536   2.2090   2.3911   2.7366

          k = 0.0714 0.2887 0.0000 (  8207 PWs)   bands (ev):

   -20.9354 -10.4122  -8.7619  -8.3948   2.4374   3.1974   3.4042   3.7344

          k = 0.0714 0.3712 0.0000 (  8202 PWs)   bands (ev):

   -19.9943 -12.2548  -9.0616  -7.6891   2.2278   3.7422   4.5470   4.7547

          k = 0.0714 0.4536 0.0000 (  8232 PWs)   bands (ev):

   -18.8436 -14.0643  -9.5307  -6.4663   0.3570   5.1172   5.4320   6.1899

          k = 0.0714-0.6186 0.0000 (  8229 PWs)   bands (ev):

   -17.5582 -15.6942  -9.7717  -5.4007  -1.0582   5.0472   7.3089   8.1226

          k = 0.1429 0.2474 0.0000 (  8196 PWs)   bands (ev):

   -21.0542  -9.8596  -8.8987  -8.6665   2.2746   3.0395   3.2354   3.5748

          k = 0.1429 0.3299 0.0000 (  8194 PWs)   bands (ev):

   -20.2288 -11.3522  -9.6267  -7.9448   2.8296   3.4202   4.1989   4.4174

          k = 0.1429 0.4124 0.0000 (  8202 PWs)   bands (ev):

   -19.1861 -13.0466 -10.2888  -6.7856   1.0530   4.8828   5.6704   5.9368

          k = 0.1429-0.6598 0.0000 (  8193 PWs)   bands (ev):

   -17.9576 -14.7252 -10.6778  -5.5655  -0.5822   6.4550   6.7123   7.4075

          k = 0.1429-0.5774 0.0000 (  8220 PWs)   bands (ev):

   -16.9204 -15.9207 -10.8068  -4.8778  -1.4162   6.4403   8.6031   8.7892

          k = 0.2143 0.3712 0.0000 (  8194 PWs)   bands (ev):

   -19.3013 -12.3819 -10.8982  -6.8959   1.3487   4.7229   5.4895   5.7683

          k = 0.2143-0.7011 0.0000 (  8165 PWs)   bands (ev):

   -18.1737 -13.7229 -11.7107  -5.6831  -0.1827   6.3304   7.0065   7.4563

          k = 0.2143-0.6186 0.0000 (  8196 PWs)   bands (ev):

   -16.9260 -15.1683 -12.0545  -4.5565  -1.4815   8.1528   8.1583   8.3924

          k = 0.2857-0.6598 0.0000 (  8132 PWs)   bands (ev):

   -16.9989 -14.4691 -12.8679  -4.4610  -1.4501   7.8171   8.0385   9.3120

          k = 0.2857-0.5774 0.0000 (  8152 PWs)   bands (ev):

   -15.9957 -15.3315 -13.2631  -3.5697  -2.3502   7.7878   9.6495   9.7594

     the Fermi energy is    -3.3374 ev

!    total energy              =     -22.79111930 Ry
     Harris-Foulkes estimate   =     -22.79111930 Ry
     estimated scf accuracy    <          5.3E-10 Ry

     The total energy is the sum of the following terms:

     one-electron contribution =    -353.76072847 Ry
     hartree contribution      =     177.89008521 Ry
     xc contribution           =      -7.02471747 Ry
     ewald contribution        =     160.10424143 Ry
     smearing contrib. (-TS)   =      -0.00000000 Ry

     convergence has been achieved in   6 iterations

     Writing output data file graphene.save

     init_run     :      3.80s CPU      3.99s WALL (       1 calls)
     electrons    :     60.26s CPU     63.22s WALL (       1 calls)

     Called by init_run:
     wfcinit      :      1.53s CPU      1.58s WALL (       1 calls)
     potinit      :      1.02s CPU      1.08s WALL (       1 calls)

     Called by electrons:
     c_bands      :     42.58s CPU     44.35s WALL (       6 calls)
     sum_band     :     11.51s CPU     12.24s WALL (       6 calls)
     v_of_rho     :      2.54s CPU      2.75s WALL (       7 calls)
     newd         :      3.09s CPU      3.26s WALL (       7 calls)
     mix_rho      :      0.41s CPU      0.42s WALL (       6 calls)

     Called by c_bands:
     init_us_2    :      0.52s CPU      0.57s WALL (     312 calls)
     cegterg      :     41.91s CPU     43.50s WALL (     144 calls)

     Called by *egterg:
     h_psi        :     39.17s CPU     40.68s WALL (     876 calls)
     s_psi        :      0.53s CPU      0.52s WALL (     876 calls)
     g_psi        :      0.16s CPU      0.17s WALL (     708 calls)
     cdiaghg      :      0.35s CPU      0.35s WALL (     852 calls)

     Called by h_psi:
     add_vuspsi   :      0.53s CPU      0.54s WALL (     876 calls)

     General routines
     calbec       :      1.12s CPU      1.15s WALL (    1020 calls)
     fft          :      2.55s CPU      2.81s WALL (     107 calls)
     ffts         :      0.07s CPU      0.07s WALL (      13 calls)
     fftw         :     26.81s CPU     28.29s WALL (    8738 calls)
     interpolate  :      0.49s CPU      0.51s WALL (      13 calls)
     davcio       :      0.17s CPU      0.22s WALL (     456 calls)

     Parallel routines
     fft_scatter  :     15.73s CPU     17.13s WALL (    8858 calls)

     PWSCF        :  1m 4.35s CPU     1m 7.56s WALL


   This run was terminated on:   2:19:47  26Jul2015            

=------------------------------------------------------------------------------=
   JOB DONE.
=------------------------------------------------------------------------------=
