
     Program PWSCF v.5.0.2 (svn rev. 9656) starts on 12Jul2015 at  1:33: 8 

     This program is part of the open-source Quantum ESPRESSO suite
     for quantum simulation of materials; please cite
         "P. Giannozzi et al., J. Phys.:Condens. Matter 21 395502 (2009);
          URL http://www.quantum-espresso.org", 
     in publications or presentations arising from this work. More details at
     http://www.quantum-espresso.org/quote.php

     Parallel version (MPI), running on     4 processors
     R & G space division:  proc/nbgrp/npool/nimage =       4

     Current dimensions of program PWSCF are:
     Max number of different atomic species (ntypx) = 10
     Max number of k-points (npk) =  40000
     Max angular momentum in pseudopotentials (lmaxx) =  3
     Waiting for input...
     Reading input from standard input
               file Al.pbe-n-kjpaw_psl.0.1.UPF: wavefunction(s)  3S renormalized

     Subspace diagonalization in iterative solution of the eigenvalue problem:
     a serial algorithm will be used


     Parallelization info
     --------------------
     sticks:   dense  smooth     PW     G-vecs:    dense   smooth      PW
     Min         124     124     40                 1779     1779     340
     Max         126     126     41                 1781     1781     342
     Sum         499     499    163                 7119     7119    1363



     bravais-lattice index     =            2
     lattice parameter (alat)  =       7.6800  a.u.
     unit-cell volume          =     113.2462 (a.u.)^3
     number of atoms/cell      =            1
     number of atomic types    =            1
     number of electrons       =         3.00
     number of Kohn-Sham states=            6
     kinetic-energy cutoff     =      60.0000  Ry
     charge density cutoff     =     240.0000  Ry
     convergence threshold     =      1.0E-07
     mixing beta               =       0.7000
     number of iterations used =            8  plain     mixing
     Exchange-correlation      =  SLA  PW   PBX  PBC ( 1 4 3 4 0)
     EXX-fraction              =        0.00

     celldm(1)=   7.680000  celldm(2)=   0.000000  celldm(3)=   0.000000
     celldm(4)=   0.000000  celldm(5)=   0.000000  celldm(6)=   0.000000

     crystal axes: (cart. coord. in units of alat)
               a(1) = (  -0.500000   0.000000   0.500000 )  
               a(2) = (   0.000000   0.500000   0.500000 )  
               a(3) = (  -0.500000   0.500000   0.000000 )  

     reciprocal axes: (cart. coord. in units 2 pi/alat)
               b(1) = ( -1.000000 -1.000000  1.000000 )  
               b(2) = (  1.000000  1.000000  1.000000 )  
               b(3) = ( -1.000000  1.000000 -1.000000 )  


     PseudoPot. # 1 for Al read from file:
     ./Al.pbe-n-kjpaw_psl.0.1.UPF
     MD5 check sum: 023d9faf819c76fc4df1f064efe7b7b2
     Pseudo is Projector augmented-wave + core cor, Zval =  3.0
     Generated using "atomic" code by A. Dal Corso  v.5.0.2 svn rev. 9415
     Shape of augmentation charge: PSQ
     Using radial grid of 1135 points,  4 beta functions with: 
                l(1) =   0
                l(2) =   0
                l(3) =   1
                l(4) =   1
     Q(r) pseudized with 0 coefficients 


     atomic species   valence    mass     pseudopotential
        Al             3.00    26.98154     Al( 1.00)

     48 Sym. Ops., with inversion, found



   Cartesian axes

     site n.     atom                  positions (alat units)
         1           Al  tau(   1) = (   0.0000000   0.0000000   0.0000000  )

     number of k points=    84  gaussian smearing, width (Ry)=  0.0030
                       cart. coord. in units 2pi/alat
        k(    1) = (   0.0000000   0.0000000   0.0000000), wk =   0.0009103
        k(    2) = (  -0.0769231   0.0769231  -0.0769231), wk =   0.0072827
        k(    3) = (  -0.1538462   0.1538462  -0.1538462), wk =   0.0072827
        k(    4) = (  -0.2307692   0.2307692  -0.2307692), wk =   0.0072827
        k(    5) = (  -0.3076923   0.3076923  -0.3076923), wk =   0.0072827
        k(    6) = (  -0.3846154   0.3846154  -0.3846154), wk =   0.0072827
        k(    7) = (  -0.4615385   0.4615385  -0.4615385), wk =   0.0072827
        k(    8) = (   0.0000000   0.1538462   0.0000000), wk =   0.0054620
        k(    9) = (  -0.0769231   0.2307692  -0.0769231), wk =   0.0218480
        k(   10) = (  -0.1538462   0.3076923  -0.1538462), wk =   0.0218480
        k(   11) = (  -0.2307692   0.3846154  -0.2307692), wk =   0.0218480
        k(   12) = (  -0.3076923   0.4615385  -0.3076923), wk =   0.0218480
        k(   13) = (  -0.3846154   0.5384615  -0.3846154), wk =   0.0218480
        k(   14) = (   0.5384615  -0.3846154   0.5384615), wk =   0.0218480
        k(   15) = (   0.4615385  -0.3076923   0.4615385), wk =   0.0218480
        k(   16) = (   0.3846154  -0.2307692   0.3846154), wk =   0.0218480
        k(   17) = (   0.3076923  -0.1538462   0.3076923), wk =   0.0218480
        k(   18) = (   0.2307692  -0.0769231   0.2307692), wk =   0.0218480
        k(   19) = (   0.1538462   0.0000000   0.1538462), wk =   0.0109240
        k(   20) = (   0.0000000   0.3076923   0.0000000), wk =   0.0054620
        k(   21) = (  -0.0769231   0.3846154  -0.0769231), wk =   0.0218480
        k(   22) = (  -0.1538462   0.4615385  -0.1538462), wk =   0.0218480
        k(   23) = (  -0.2307692   0.5384615  -0.2307692), wk =   0.0218480
        k(   24) = (  -0.3076923   0.6153846  -0.3076923), wk =   0.0218480
        k(   25) = (   0.6153846  -0.3076923   0.6153846), wk =   0.0218480
        k(   26) = (   0.5384615  -0.2307692   0.5384615), wk =   0.0218480
        k(   27) = (   0.4615385  -0.1538462   0.4615385), wk =   0.0218480
        k(   28) = (   0.3846154  -0.0769231   0.3846154), wk =   0.0218480
        k(   29) = (   0.3076923   0.0000000   0.3076923), wk =   0.0109240
        k(   30) = (   0.0000000   0.4615385   0.0000000), wk =   0.0054620
        k(   31) = (  -0.0769231   0.5384615  -0.0769231), wk =   0.0218480
        k(   32) = (  -0.1538462   0.6153846  -0.1538462), wk =   0.0218480
        k(   33) = (  -0.2307692   0.6923077  -0.2307692), wk =   0.0218480
        k(   34) = (   0.6923077  -0.2307692   0.6923077), wk =   0.0218480
        k(   35) = (   0.6153846  -0.1538462   0.6153846), wk =   0.0218480
        k(   36) = (   0.5384615  -0.0769231   0.5384615), wk =   0.0218480
        k(   37) = (   0.4615385   0.0000000   0.4615385), wk =   0.0109240
        k(   38) = (   0.0000000   0.6153846   0.0000000), wk =   0.0054620
        k(   39) = (  -0.0769231   0.6923077  -0.0769231), wk =   0.0218480
        k(   40) = (  -0.1538462   0.7692308  -0.1538462), wk =   0.0218480
        k(   41) = (   0.7692308  -0.1538462   0.7692308), wk =   0.0218480
        k(   42) = (   0.6923077  -0.0769231   0.6923077), wk =   0.0218480
        k(   43) = (   0.6153846   0.0000000   0.6153846), wk =   0.0109240
        k(   44) = (   0.0000000   0.7692308   0.0000000), wk =   0.0054620
        k(   45) = (  -0.0769231   0.8461538  -0.0769231), wk =   0.0218480
        k(   46) = (   0.8461538  -0.0769231   0.8461538), wk =   0.0218480
        k(   47) = (   0.7692308   0.0000000   0.7692308), wk =   0.0109240
        k(   48) = (   0.0000000   0.9230769   0.0000000), wk =   0.0054620
        k(   49) = (   0.9230769   0.0000000   0.9230769), wk =   0.0109240
        k(   50) = (  -0.1538462   0.3076923   0.0000000), wk =   0.0218480
        k(   51) = (  -0.2307692   0.3846154  -0.0769231), wk =   0.0436959
        k(   52) = (  -0.3076923   0.4615385  -0.1538462), wk =   0.0436959
        k(   53) = (  -0.3846154   0.5384615  -0.2307692), wk =   0.0436959
        k(   54) = (   0.5384615  -0.3846154   0.6923077), wk =   0.0436959
        k(   55) = (  -0.1538462   0.4615385   0.0000000), wk =   0.0218480
        k(   56) = (  -0.2307692   0.5384615  -0.0769231), wk =   0.0436959
        k(   57) = (  -0.3076923   0.6153846  -0.1538462), wk =   0.0436959
        k(   58) = (   0.6153846  -0.3076923   0.7692308), wk =   0.0436959
        k(   59) = (   0.5384615  -0.2307692   0.6923077), wk =   0.0436959
        k(   60) = (   0.4615385  -0.1538462   0.6153846), wk =   0.0436959
        k(   61) = (   0.3846154  -0.0769231   0.5384615), wk =   0.0436959
        k(   62) = (   0.3076923   0.0000000   0.4615385), wk =   0.0218480
        k(   63) = (  -0.1538462   0.6153846   0.0000000), wk =   0.0218480
        k(   64) = (  -0.2307692   0.6923077  -0.0769231), wk =   0.0436959
        k(   65) = (   0.6923077  -0.2307692   0.8461538), wk =   0.0436959
        k(   66) = (   0.6153846  -0.1538462   0.7692308), wk =   0.0436959
        k(   67) = (   0.5384615  -0.0769231   0.6923077), wk =   0.0436959
        k(   68) = (   0.4615385   0.0000000   0.6153846), wk =   0.0218480
        k(   69) = (  -0.1538462   0.7692308   0.0000000), wk =   0.0218480
        k(   70) = (   0.7692308  -0.1538462   0.9230769), wk =   0.0436959
        k(   71) = (   0.6923077  -0.0769231   0.8461538), wk =   0.0436959
        k(   72) = (   0.6153846   0.0000000   0.7692308), wk =   0.0218480
        k(   73) = (   0.8461538  -0.0769231   1.0000000), wk =   0.0218480
        k(   74) = (   0.7692308   0.0000000   0.9230769), wk =   0.0218480
        k(   75) = (  -0.3076923   0.6153846   0.0000000), wk =   0.0218480
        k(   76) = (   0.6153846  -0.3076923   0.9230769), wk =   0.0436959
        k(   77) = (   0.5384615  -0.2307692   0.8461538), wk =   0.0436959
        k(   78) = (   0.6923077  -0.2307692   1.0000000), wk =   0.0218480
        k(   79) = (   0.6153846  -0.1538462   0.9230769), wk =   0.0436959
        k(   80) = (   0.5384615  -0.0769231   0.8461538), wk =   0.0436959
        k(   81) = (   0.4615385   0.0000000   0.7692308), wk =   0.0218480
        k(   82) = (   0.6923077  -0.0769231   1.0000000), wk =   0.0218480
        k(   83) = (   0.6153846   0.0000000   0.9230769), wk =   0.0218480
        k(   84) = (   0.5384615  -0.0769231   1.0000000), wk =   0.0218480

     Dense  grid:     7119 G-vectors     FFT dimensions: (  27,  27,  27)

     Largest allocated arrays     est. size (Mb)     dimensions
        Kohn-Sham Wavefunctions         0.02 Mb     (    232,    6)
        NL pseudopotentials             0.03 Mb     (    232,    8)
        Each V/rho on FFT grid          0.08 Mb     (   5103)
        Each G-vector array             0.01 Mb     (   1781)
        G-vector shells                 0.00 Mb     (    122)
     Largest temporary arrays     est. size (Mb)     dimensions
        Auxiliary wavefunctions         0.08 Mb     (    232,   24)
        Each subspace H/S matrix        0.01 Mb     (  24,  24)
        Each <psi_i|beta_j> matrix      0.00 Mb     (      8,    6)
        Arrays for rho mixing           0.62 Mb     (   5103,   8)

     Initial potential from superposition of free atoms

     starting charge    2.99771, renormalised to    3.00000
     Starting wfc are    4 randomized atomic wfcs
     Checking if some PAW data can be deallocated... 

     total cpu time spent up to now is        1.1 secs

     per-process dynamical memory:     9.0 Mb

     Self-consistent Calculation

     iteration #  1     ecut=    60.00 Ry     beta=0.70
     Davidson diagonalization with overlap
     ethr =  1.00E-02,  avg # of iterations =  4.9

     Threshold (ethr) on eigenvalues was too large:
     Diagonalizing with lowered threshold

     Davidson diagonalization with overlap
     ethr =  1.96E-04,  avg # of iterations =  2.2

     total cpu time spent up to now is        3.7 secs

     total energy              =     -39.50261831 Ry
     Harris-Foulkes estimate   =     -39.50401690 Ry
     estimated scf accuracy    <       0.00559551 Ry

     iteration #  2     ecut=    60.00 Ry     beta=0.70
     Davidson diagonalization with overlap
     ethr =  1.87E-04,  avg # of iterations =  1.0

     total cpu time spent up to now is        4.6 secs

     total energy              =     -39.50258246 Ry
     Harris-Foulkes estimate   =     -39.50268745 Ry
     estimated scf accuracy    <       0.00040469 Ry

     iteration #  3     ecut=    60.00 Ry     beta=0.70
     Davidson diagonalization with overlap
     ethr =  1.35E-05,  avg # of iterations =  1.9

     total cpu time spent up to now is        5.5 secs

     total energy              =     -39.50260386 Ry
     Harris-Foulkes estimate   =     -39.50260445 Ry
     estimated scf accuracy    <       0.00000144 Ry

     iteration #  4     ecut=    60.00 Ry     beta=0.70
     Davidson diagonalization with overlap
     ethr =  4.78E-08,  avg # of iterations =  3.0

     total cpu time spent up to now is        6.7 secs

     total energy              =     -39.50260931 Ry
     Harris-Foulkes estimate   =     -39.50260525 Ry
     estimated scf accuracy    <       0.00000012 Ry

     iteration #  5     ecut=    60.00 Ry     beta=0.70
     Davidson diagonalization with overlap
     ethr =  4.02E-09,  avg # of iterations =  3.0

     total cpu time spent up to now is        7.8 secs

     total energy              =     -39.50260474 Ry
     Harris-Foulkes estimate   =     -39.50260986 Ry
     estimated scf accuracy    <       0.00001230 Ry

     iteration #  6     ecut=    60.00 Ry     beta=0.70
     Davidson diagonalization with overlap
     ethr =  4.02E-09,  avg # of iterations =  3.0

     total cpu time spent up to now is        8.9 secs

     End of self-consistent calculation

          k = 0.0000 0.0000 0.0000 (   893 PWs)   bands (ev):

    -3.2896  20.2616  20.2616  21.5942  21.5942  21.5942

          k =-0.0769 0.0769-0.0769 (   902 PWs)   bands (ev):

    -3.1305  17.8933  19.7244  19.7244  22.2957  22.3726

          k =-0.1538 0.1538-0.1538 (   911 PWs)   bands (ev):

    -2.6544  14.8149  19.0482  19.0483  22.1804  23.5034

          k =-0.2308 0.2308-0.2308 (   896 PWs)   bands (ev):

    -1.8643  11.8488  18.5874  18.5874  21.9579  22.6578

          k =-0.3077 0.3077-0.3077 (   890 PWs)   bands (ev):

    -0.7653   9.0897  18.3814  18.3814  21.3409  21.3409

          k =-0.3846 0.3846-0.3846 (   881 PWs)   bands (ev):

     0.6361   6.5728  18.4386  18.4386  20.2280  20.2280

          k =-0.4615 0.4615-0.4615 (   884 PWs)   bands (ev):

     2.3299   4.3191  18.7569  18.7569  19.3758  19.3758

          k = 0.0000 0.1538 0.0000 (   893 PWs)   bands (ev):

    -3.0776  18.6722  18.6722  19.0114  21.1070  23.4895

          k =-0.0769 0.2308-0.0769 (   898 PWs)   bands (ev):

    -2.7073  15.9093  17.8431  19.0740  21.4291  22.8511

          k =-0.1538 0.3077-0.1538 (   895 PWs)   bands (ev):

    -2.0220  12.9256  17.2723  18.7358  20.9075  23.0581

          k =-0.2308 0.3846-0.2308 (   891 PWs)   bands (ev):

    -1.0262  10.1059  16.9675  18.4930  19.4458  23.4196

          k =-0.3077 0.4615-0.3077 (   892 PWs)   bands (ev):

     0.2739   7.5123  16.9313  18.2046  18.4884  22.2588

          k =-0.3846 0.5385-0.3846 (   885 PWs)   bands (ev):

     1.8700   5.1726  17.1648  17.2289  18.7498  21.3267

          k = 0.5385-0.3846 0.5385 (   885 PWs)   bands (ev):

     3.0863   3.7699  16.5262  17.6681  19.2865  20.6514

          k = 0.4615-0.3077 0.4615 (   881 PWs)   bands (ev):

     1.3059   5.9222  16.1016  18.4375  20.0948  20.2438

          k = 0.3846-0.2308 0.3846 (   893 PWs)   bands (ev):

    -0.1928   8.3475  15.9569  19.4425  20.1301  21.1621

          k = 0.3077-0.1538 0.3077 (   890 PWs)   bands (ev):

    -1.3923  11.0157  16.0942  20.1181  20.8471  22.4483

          k = 0.2308-0.0769 0.2308 (   903 PWs)   bands (ev):

    -2.2852  13.8789  16.5242  20.4801  22.1285  22.9578

          k = 0.1538 0.0000 0.1538 (   903 PWs)   bands (ev):

    -2.8658  16.6188  17.4683  20.6734  21.8304  22.8322

          k = 0.0000 0.3077 0.0000 (   897 PWs)   bands (ev):

    -2.4433  16.9014  16.9014  17.1436  20.0039  20.7526

          k =-0.0769 0.3846-0.0769 (   887 PWs)   bands (ev):

    -1.8643  14.2042  16.2293  17.5208  18.8322  20.3497

          k =-0.1538 0.4615-0.1538 (   880 PWs)   bands (ev):

    -0.9741  11.3784  15.8282  17.1657  17.4648  21.9054

          k =-0.2308 0.5385-0.2308 (   884 PWs)   bands (ev):

     0.2217   8.7304  15.6982  15.8255  17.3944  23.8896

          k =-0.3077 0.6154-0.3077 (   889 PWs)   bands (ev):

     1.7153   6.3173  14.7346  15.8396  17.5863  23.5471

          k = 0.6154-0.3077 0.6154 (   885 PWs)   bands (ev):

     3.4864   4.1755  13.9248  16.2526  18.0548  22.7971

          k = 0.5385-0.2308 0.5385 (   888 PWs)   bands (ev):

     2.2785   5.5644  13.4041  16.9368  18.8037  22.3028

          k = 0.4615-0.1538 0.4615 (   887 PWs)   bands (ev):

     0.6874   7.8803  13.1829  17.8893  19.8237  22.0673

          k = 0.3846-0.0769 0.3846 (   896 PWs)   bands (ev):

    -0.6090  10.4034  13.2960  19.1000  21.0916  22.0653

          k = 0.3077 0.0000 0.3077 (   899 PWs)   bands (ev):

    -1.6019  12.7608  14.0826  20.5289  21.9045  22.5487

          k = 0.0000 0.4615 0.0000 (   881 PWs)   bands (ev):

    -1.3924  15.4603  15.4603  15.5305  16.8423  18.8341

          k =-0.0769 0.5385-0.0769 (   887 PWs)   bands (ev):

    -0.6093  12.8533  14.9647  15.0821  16.2014  19.2100

          k =-0.1538 0.6154-0.1538 (   886 PWs)   bands (ev):

     0.4796  10.2038  13.6017  14.7416  16.3057  20.9335

          k =-0.2308 0.6923-0.2308 (   887 PWs)   bands (ev):

     1.8666   7.7394  12.3986  14.7907  16.4606  23.1660

          k = 0.6923-0.2308 0.6923 (   890 PWs)   bands (ev):

     3.5380   5.5185  11.4847  15.1120  16.8572  25.1946

          k = 0.6154-0.1538 0.6154 (   885 PWs)   bands (ev):

     3.5457   5.4956  10.8754  15.7057  17.5312  24.6271

          k = 0.5385-0.0769 0.5385 (   885 PWs)   bands (ev):

     1.8694   7.6534  10.6155  16.5713  18.4814  24.3034

          k = 0.4615 0.0000 0.4615 (   887 PWs)   bands (ev):

     0.4807   9.6331  11.0895  17.7062  19.6872  24.6401

          k = 0.0000 0.6154 0.0000 (   882 PWs)   bands (ev):

     0.0655  13.2091  14.2931  14.3758  14.3758  17.8028

          k =-0.0769 0.6923-0.0769 (   885 PWs)   bands (ev):

     1.0451  11.5670  11.9289  14.0603  15.2150  18.3371

          k =-0.1538 0.7692-0.1538 (   891 PWs)   bands (ev):

     2.3209   9.3947  10.3305  14.0173  15.5154  20.2487

          k = 0.7692-0.1538 0.7692 (   885 PWs)   bands (ev):

     3.8759   7.1363   9.3067  14.2466  15.8730  22.6884

          k = 0.6923-0.0769 0.6923 (   888 PWs)   bands (ev):

     5.0863   5.6885   8.6404  14.7485  16.4739  25.3230

          k = 0.6154 0.0000 0.6154 (   881 PWs)   bands (ev):

     3.3446   7.2860   8.7235  15.5235  17.3475  26.8620

          k = 0.0000 0.7692 0.0000 (   886 PWs)   bands (ev):

     1.9124   9.8971  13.4607  13.6528  13.6528  17.0653

          k =-0.0769 0.8462-0.0769 (   894 PWs)   bands (ev):

     3.0687   8.4796  11.3081  13.5179  14.6181  17.7901

          k = 0.8462-0.0769 0.8462 (   890 PWs)   bands (ev):

     4.4709   7.3934   9.0558  13.6554  15.1132  19.8966

          k = 0.7692 0.0000 0.7692 (   890 PWs)   bands (ev):

     5.7241   6.7761   7.2542  14.0654  15.6737  22.5242

          k = 0.0000 0.9231 0.0000 (   894 PWs)   bands (ev):

     4.0720   7.0020  13.0428  13.2914  13.2914  16.6830

          k = 0.9231 0.0000 0.9231 (   898 PWs)   bands (ev):

     4.9445   6.2376  11.1112  13.3372  14.4182  17.6043

          k =-0.1538 0.3077 0.0000 (   899 PWs)   bands (ev):

    -2.2325  14.7055  15.7752  19.6469  20.6887  21.5069

          k =-0.2308 0.3846-0.0769 (   891 PWs)   bands (ev):

    -1.4447  12.1489  14.9204  19.1294  19.7789  22.5343

          k =-0.3077 0.4615-0.1538 (   889 PWs)   bands (ev):

    -0.3488   9.4536  14.6476  17.7080  19.6830  22.7531

          k =-0.3846 0.5385-0.2308 (   886 PWs)   bands (ev):

     1.0482   6.9602  14.6845  16.5430  19.7773  21.6647

          k = 0.5385-0.3846 0.6923 (   892 PWs)   bands (ev):

     2.7359   4.7193  14.9987  15.6639  20.1025  20.8161

          k =-0.1538 0.4615 0.0000 (   883 PWs)   bands (ev):

    -1.1831  13.1545  14.3206  17.0354  18.2051  20.2258

          k =-0.2308 0.5385-0.0769 (   886 PWs)   bands (ev):

    -0.1932  10.7855  13.6080  15.4857  18.5690  21.5236

          k =-0.3077 0.6154-0.1538 (   887 PWs)   bands (ev):

     1.0987   8.2702  13.4858  14.2267  18.6904  23.4254

          k = 0.6154-0.3077 0.7692 (   885 PWs)   bands (ev):

     2.6832   5.9626  13.1231  13.8093  18.9889  23.0482

          k = 0.5385-0.2308 0.6923 (   885 PWs)   bands (ev):

     3.8882   4.5725  12.4391  14.2973  19.5369  22.3761

          k = 0.4615-0.1538 0.6154 (   885 PWs)   bands (ev):

     2.1246   6.6896  12.0318  15.0970  20.3378  21.9421

          k = 0.3846-0.0769 0.5385 (   887 PWs)   bands (ev):

     0.6355   9.0311  11.9638  16.1795  21.3136  21.7675

          k = 0.3077 0.0000 0.4615 (   887 PWs)   bands (ev):

    -0.5569  11.1987  12.6000  17.5319  21.2270  22.3117

          k =-0.1538 0.6154 0.0000 (   884 PWs)   bands (ev):

     0.2727  11.9843  13.0875  13.5449  17.0683  19.2417

          k =-0.2308 0.6923-0.0769 (   882 PWs)   bands (ev):

     1.4564   9.8014  11.9601  12.7433  17.6397  20.7127

          k = 0.6923-0.2308 0.8462 (   889 PWs)   bands (ev):

     2.9315   7.4749  10.8868  12.7970  17.9616  22.9696

          k = 0.6154-0.1538 0.7692 (   896 PWs)   bands (ev):

     4.6668   5.3744  10.0852  13.2059  18.4564  24.7016

          k = 0.5385-0.0769 0.6923 (   883 PWs)   bands (ev):

     3.4947   6.6652   9.6284  13.9146  19.1988  24.2852

          k = 0.4615 0.0000 0.6154 (   888 PWs)   bands (ev):

     1.9200   8.4592   9.9128  14.9094  20.1907  23.5725

          k =-0.1538 0.7692 0.0000 (   885 PWs)   bands (ev):

     2.1168  10.0829  11.2017  12.4946  16.3006  18.5419

          k = 0.7692-0.1538 0.9231 (   889 PWs)   bands (ev):

     3.4731   8.8204   9.2833  12.1279  17.0691  20.2002

          k = 0.6923-0.0769 0.8462 (   891 PWs)   bands (ev):

     5.0662   7.0506   8.0598  12.4056  17.5868  22.6621

          k = 0.6154 0.0000 0.7692 (   891 PWs)   bands (ev):

     5.1433   6.5047   7.9175  13.0129  18.2735  25.3017

          k = 0.8462-0.0769 1.0000 (   890 PWs)   bands (ev):

     4.2716   7.2018  10.8098  12.1090  15.9151  18.1803

          k = 0.7692 0.0000 0.9231 (   889 PWs)   bands (ev):

     5.3342   6.6428   9.0398  11.9329  16.8773  20.0257

          k =-0.3077 0.6154 0.0000 (   884 PWs)   bands (ev):

     0.8926  10.0253  11.4384  14.0174  20.1662  21.7771

          k = 0.6154-0.3077 0.9231 (   892 PWs)   bands (ev):

     2.2755   8.0452  10.9747  12.8276  20.8194  22.6762

          k = 0.5385-0.2308 0.8462 (   884 PWs)   bands (ev):

     3.9416   5.8941  11.1901  11.9642  21.2132  22.0198

          k = 0.6923-0.2308 1.0000 (   894 PWs)   bands (ev):

     2.7283   9.2427  10.3984  11.0017  19.4187  21.1879

          k = 0.6154-0.1538 0.9231 (   893 PWs)   bands (ev):

     4.2782   7.4480   9.6162  10.5205  20.2901  23.0299

          k = 0.5385-0.0769 0.8462 (   891 PWs)   bands (ev):

     5.4644   6.0829   9.0105  10.9252  20.9283  23.8138

          k = 0.4615 0.0000 0.7692 (   893 PWs)   bands (ev):

     3.7415   7.6771   9.1002  11.7208  21.7166  22.8861

          k = 0.6923-0.0769 1.0000 (   895 PWs)   bands (ev):

     4.8690   7.7886   8.8513  10.3489  19.0394  20.8669

          k = 0.6154 0.0000 0.9231 (   888 PWs)   bands (ev):

     6.1143   7.1429   7.5807  10.2669  20.1083  22.9278

          k = 0.5385-0.0769 1.0000 (   886 PWs)   bands (ev):

     5.8584   7.2862   8.4368   9.1474  22.5225  23.3039

     the Fermi energy is     7.6595 ev

!    total energy              =     -39.50260519 Ry
     Harris-Foulkes estimate   =     -39.50260519 Ry
     estimated scf accuracy    <          1.0E-12 Ry

     total all-electron energy =      -485.645387 Ry

     The total energy is the sum of the following terms:

     one-electron contribution =       3.12156772 Ry
     hartree contribution      =       0.00568341 Ry
     xc contribution           =      -3.02109642 Ry
     ewald contribution        =      -5.37288524 Ry
     one-center paw contrib.   =     -34.23584038 Ry
     smearing contrib. (-TS)   =      -0.00003427 Ry

     convergence has been achieved in   6 iterations

     Writing output data file Al.save

     init_run     :      0.64s CPU      0.69s WALL (       1 calls)
     electrons    :      7.45s CPU      7.79s WALL (       1 calls)

     Called by init_run:
     wfcinit      :      0.31s CPU      0.33s WALL (       1 calls)
     potinit      :      0.07s CPU      0.07s WALL (       1 calls)

     Called by electrons:
     c_bands      :      5.94s CPU      6.18s WALL (       7 calls)
     sum_band     :      1.05s CPU      1.13s WALL (       7 calls)
     v_of_rho     :      0.06s CPU      0.06s WALL (       7 calls)
     newd         :      0.02s CPU      0.03s WALL (       7 calls)
     mix_rho      :      0.06s CPU      0.07s WALL (       7 calls)

     Called by c_bands:
     init_us_2    :      0.23s CPU      0.19s WALL (    1260 calls)
     cegterg      :      5.74s CPU      5.98s WALL (     588 calls)

     Called by *egterg:
     h_psi        :      5.01s CPU      5.22s WALL (    2265 calls)
     s_psi        :      0.05s CPU      0.05s WALL (    2265 calls)
     g_psi        :      0.04s CPU      0.04s WALL (    1593 calls)
     cdiaghg      :      0.50s CPU      0.48s WALL (    2097 calls)

     Called by h_psi:
     add_vuspsi   :      0.06s CPU      0.06s WALL (    2265 calls)

     General routines
     calbec       :      0.10s CPU      0.12s WALL (    2853 calls)
     fft          :      0.04s CPU      0.04s WALL (      93 calls)
     fftw         :      5.52s CPU      5.47s WALL (   22872 calls)
     davcio       :      0.03s CPU      0.04s WALL (    1848 calls)

     Parallel routines
     fft_scatter  :      0.86s CPU      1.09s WALL (   22965 calls)

     PAW routines
     PAW_pot      :      0.35s CPU      0.36s WALL (       7 calls)
     PAW_ddot     :      0.06s CPU      0.06s WALL (      37 calls)
     PAW_symme    :      0.00s CPU      0.00s WALL (      14 calls)

     PWSCF        :     8.83s CPU         9.25s WALL


   This run was terminated on:   1:33:17  12Jul2015            

=------------------------------------------------------------------------------=
   JOB DONE.
=------------------------------------------------------------------------------=
