
     Program PWSCF v.5.0.2 (svn rev. 9656) starts on 26Jul2015 at  4: 6:15 

     This program is part of the open-source Quantum ESPRESSO suite
     for quantum simulation of materials; please cite
         "P. Giannozzi et al., J. Phys.:Condens. Matter 21 395502 (2009);
          URL http://www.quantum-espresso.org", 
     in publications or presentations arising from this work. More details at
     http://www.quantum-espresso.org/quote.php

     Parallel version (MPI), running on     4 processors
     R & G space division:  proc/nbgrp/npool/nimage =       4

     Current dimensions of program PWSCF are:
     Max number of different atomic species (ntypx) = 10
     Max number of k-points (npk) =  40000
     Max angular momentum in pseudopotentials (lmaxx) =  3
     Waiting for input...
     Reading input from standard input
               file C.pbe-rrkjus.UPF: wavefunction(s)  2S 2P renormalized

     Subspace diagonalization in iterative solution of the eigenvalue problem:
     a serial algorithm will be used


     Parallelization info
     --------------------
     sticks:   dense  smooth     PW     G-vecs:    dense   smooth      PW
     Min         211     145     46                58589    34697    5828
     Max         212     146     47                58614    34772    5845
     Sum         847     583    187               234415   138983   23337



     bravais-lattice index     =            0
     lattice parameter (alat)  =       4.6500  a.u.
     unit-cell volume          =    1044.8904 (a.u.)^3
     number of atoms/cell      =            2
     number of atomic types    =            1
     number of electrons       =         8.00
     number of Kohn-Sham states=            8
     kinetic-energy cutoff     =      99.0000  Ry
     charge density cutoff     =     560.0000  Ry
     convergence threshold     =      1.0E-08
     mixing beta               =       0.7000
     number of iterations used =            8  plain     mixing
     Exchange-correlation      =  SLA  PW   PBE  PBE ( 1 4 3 4 0)
     EXX-fraction              =        0.00

     celldm(1)=   4.650000  celldm(2)=   0.000000  celldm(3)=   0.000000
     celldm(4)=   0.000000  celldm(5)=   0.000000  celldm(6)=   0.000000

     crystal axes: (cart. coord. in units of alat)
               a(1) = (   1.000000   0.000000   0.000000 )  
               a(2) = (   0.500000   0.866025   0.000000 )  
               a(3) = (   0.000000   0.000000  12.000000 )  

     reciprocal axes: (cart. coord. in units 2 pi/alat)
               b(1) = (  1.000000 -0.577350  0.000000 )  
               b(2) = (  0.000000  1.154701  0.000000 )  
               b(3) = (  0.000000  0.000000  0.083333 )  


     PseudoPot. # 1 for C  read from file:
     ./C.pbe-rrkjus.UPF
     MD5 check sum: 00fb224312de0c5b6853bd333518df6f
     Pseudo is Ultrasoft, Zval =  4.0
     Generated by new atomic code, or converted to UPF format
     Using radial grid of  627 points,  4 beta functions with: 
                l(1) =   0
                l(2) =   0
                l(3) =   1
                l(4) =   1
     Q(r) pseudized with 0 coefficients 


     atomic species   valence    mass     pseudopotential
        C              4.00    12.00000     C ( 1.00)

     24 Sym. Ops., with inversion, found (12 have fractional translation)



   Cartesian axes

     site n.     atom                  positions (alat units)
         1           C   tau(   1) = (   0.0000000   0.0000000   0.0000000  )
         2           C   tau(   2) = (   1.0000000   0.5773503   0.0000000  )

     number of k points=    30  gaussian smearing, width (Ry)=  0.0010
                       cart. coord. in units 2pi/alat
        k(    1) = (   0.0000000   0.0000000   0.0000000), wk =   0.0078125
        k(    2) = (   0.0000000   0.0721688   0.0000000), wk =   0.0468750
        k(    3) = (   0.0000000   0.1443376   0.0000000), wk =   0.0468750
        k(    4) = (   0.0000000   0.2165064   0.0000000), wk =   0.0468750
        k(    5) = (   0.0000000   0.2886751   0.0000000), wk =   0.0468750
        k(    6) = (   0.0000000   0.3608439   0.0000000), wk =   0.0468750
        k(    7) = (   0.0000000   0.4330127   0.0000000), wk =   0.0468750
        k(    8) = (   0.0000000   0.5051815   0.0000000), wk =   0.0468750
        k(    9) = (   0.0000000  -0.5773503   0.0000000), wk =   0.0234375
        k(   10) = (   0.0625000   0.1082532   0.0000000), wk =   0.0468750
        k(   11) = (   0.0625000   0.1804220   0.0000000), wk =   0.0937500
        k(   12) = (   0.0625000   0.2525907   0.0000000), wk =   0.0937500
        k(   13) = (   0.0625000   0.3247595   0.0000000), wk =   0.0937500
        k(   14) = (   0.0625000   0.3969283   0.0000000), wk =   0.0937500
        k(   15) = (   0.0625000   0.4690971   0.0000000), wk =   0.0937500
        k(   16) = (   0.0625000  -0.6134347   0.0000000), wk =   0.0937500
        k(   17) = (   0.1250000   0.2165064   0.0000000), wk =   0.0468750
        k(   18) = (   0.1250000   0.2886751   0.0000000), wk =   0.0937500
        k(   19) = (   0.1250000   0.3608439   0.0000000), wk =   0.0937500
        k(   20) = (   0.1250000   0.4330127   0.0000000), wk =   0.0937500
        k(   21) = (   0.1250000  -0.6495191   0.0000000), wk =   0.0937500
        k(   22) = (   0.1250000  -0.5773503   0.0000000), wk =   0.0468750
        k(   23) = (   0.1875000   0.3247595   0.0000000), wk =   0.0468750
        k(   24) = (   0.1875000   0.3969283   0.0000000), wk =   0.0937500
        k(   25) = (   0.1875000  -0.6856034   0.0000000), wk =   0.0937500
        k(   26) = (   0.1875000  -0.6134347   0.0000000), wk =   0.0937500
        k(   27) = (   0.2500000  -0.7216878   0.0000000), wk =   0.0468750
        k(   28) = (   0.2500000  -0.6495191   0.0000000), wk =   0.0937500
        k(   29) = (   0.2500000  -0.5773503   0.0000000), wk =   0.0468750
        k(   30) = (   0.3125000  -0.6134347   0.0000000), wk =   0.0468750

     Dense  grid:   234415 G-vectors     FFT dimensions: (  36,  36, 432)

     Smooth grid:   138983 G-vectors     FFT dimensions: (  30,  30, 360)

     Largest allocated arrays     est. size (Mb)     dimensions
        Kohn-Sham Wavefunctions         0.55 Mb     (   4519,    8)
        NL pseudopotentials             1.10 Mb     (   4519,   16)
        Each V/rho on FFT grid          2.14 Mb     ( 139968)
        Each G-vector array             0.45 Mb     (  58604)
        G-vector shells                 0.13 Mb     (  17586)
     Largest temporary arrays     est. size (Mb)     dimensions
        Auxiliary wavefunctions         2.21 Mb     (   4519,   32)
        Each subspace H/S matrix        0.02 Mb     (  32,  32)
        Each <psi_i|beta_j> matrix      0.00 Mb     (     16,    8)
        Arrays for rho mixing          17.09 Mb     ( 139968,   8)

     Initial potential from superposition of free atoms

     starting charge    7.99989, renormalised to    8.00000

     negative rho (up, down):  0.254E-04 0.000E+00
     Starting wfc are    8 randomized atomic wfcs

     total cpu time spent up to now is        7.5 secs

     per-process dynamical memory:    37.6 Mb

     Self-consistent Calculation

     iteration #  1     ecut=    99.00 Ry     beta=0.70
     Davidson diagonalization with overlap
     ethr =  1.00E-02,  avg # of iterations =  4.8

     negative rho (up, down):  0.176E-04 0.000E+00

     total cpu time spent up to now is       43.6 secs

     total energy              =     -22.75977046 Ry
     Harris-Foulkes estimate   =     -22.88424778 Ry
     estimated scf accuracy    <       0.20657977 Ry

     iteration #  2     ecut=    99.00 Ry     beta=0.70
     Davidson diagonalization with overlap
     ethr =  2.58E-03,  avg # of iterations =  3.9

     negative rho (up, down):  0.169E-04 0.000E+00

     total cpu time spent up to now is       70.6 secs

     total energy              =     -22.79091091 Ry
     Harris-Foulkes estimate   =     -22.79104575 Ry
     estimated scf accuracy    <       0.00251256 Ry

     iteration #  3     ecut=    99.00 Ry     beta=0.70
     Davidson diagonalization with overlap
     ethr =  3.14E-05,  avg # of iterations = 11.4

     negative rho (up, down):  0.186E-04 0.000E+00

     total cpu time spent up to now is      124.0 secs

     total energy              =     -22.79127292 Ry
     Harris-Foulkes estimate   =     -22.79124222 Ry
     estimated scf accuracy    <       0.00013748 Ry

     iteration #  4     ecut=    99.00 Ry     beta=0.70
     Davidson diagonalization with overlap
     ethr =  1.72E-06,  avg # of iterations =  4.6

     negative rho (up, down):  0.187E-04 0.000E+00

     total cpu time spent up to now is      154.5 secs

     total energy              =     -22.79127834 Ry
     Harris-Foulkes estimate   =     -22.79127750 Ry
     estimated scf accuracy    <       0.00000094 Ry

     iteration #  5     ecut=    99.00 Ry     beta=0.70
     Davidson diagonalization with overlap
     ethr =  1.18E-08,  avg # of iterations =  2.4

     negative rho (up, down):  0.187E-04 0.000E+00

     total cpu time spent up to now is      185.1 secs

     total energy              =     -22.79127866 Ry
     Harris-Foulkes estimate   =     -22.79127866 Ry
     estimated scf accuracy    <       0.00000003 Ry

     iteration #  6     ecut=    99.00 Ry     beta=0.70
     Davidson diagonalization with overlap
     ethr =  3.15E-10,  avg # of iterations =  2.0

     negative rho (up, down):  0.186E-04 0.000E+00

     total cpu time spent up to now is      213.4 secs

     End of self-consistent calculation

          k = 0.0000 0.0000 0.0000 ( 17511 PWs)   bands (ev):

   -22.4918 -10.6020  -6.0253  -6.0253   0.3035   1.0417   1.2090   1.5613

          k = 0.0000 0.0722 0.0000 ( 17531 PWs)   bands (ev):

   -22.3994 -10.4913  -6.3977  -6.2220   0.4293   1.1696   1.3383   1.6900

          k = 0.0000 0.1443 0.0000 ( 17479 PWs)   bands (ev):

   -22.1226 -10.1606  -7.4009  -6.7298   0.8066   1.5530   1.7262   2.0758

          k = 0.0000 0.2165 0.0000 ( 17425 PWs)   bands (ev):

   -21.6632  -9.6154  -8.8030  -7.3829   1.4352   2.1905   2.3726   2.7180

          k = 0.0000 0.2887 0.0000 ( 17419 PWs)   bands (ev):

   -21.0245 -10.4002  -8.8666  -8.0406   2.3134   3.0722   3.2776   3.6096

          k = 0.0000 0.3608 0.0000 ( 17371 PWs)   bands (ev):

   -20.2117 -12.0548  -8.6132  -7.9370   2.5523   3.4364   4.2503   4.4406

          k = 0.0000 0.4330 0.0000 ( 17351 PWs)   bands (ev):

   -19.2349 -13.6768  -9.0493  -6.8787   0.8531   4.6104   4.8968   5.6367

          k = 0.0000 0.5052 0.0000 ( 17346 PWs)   bands (ev):

   -18.1229 -15.1915  -9.3203  -5.8436  -0.5991   4.5448   6.4381   7.2682

          k = 0.0000-0.5774 0.0000 ( 17316 PWs)   bands (ev):

   -17.2299 -16.2212  -9.4121  -5.3193  -1.2673   4.5013   8.1869   8.3398

          k = 0.0625 0.1083 0.0000 ( 17481 PWs)   bands (ev):

   -22.2148 -10.2705  -7.0445  -6.6157   0.6809   1.4252   1.5969   1.9472

          k = 0.0625 0.1804 0.0000 ( 17416 PWs)   bands (ev):

   -21.8467  -9.8324  -8.1728  -7.2719   1.1841   1.9359   2.1140   2.4613

          k = 0.0625 0.2526 0.0000 ( 17414 PWs)   bands (ev):

   -21.2976  -9.6201  -9.1847  -7.9811   1.9380   2.6987   2.8897   3.2311

          k = 0.0625 0.3248 0.0000 ( 17422 PWs)   bands (ev):

   -20.5718 -11.2167  -8.6261  -8.3429   2.9402   3.3119   3.7645   3.9240

          k = 0.0625 0.3969 0.0000 ( 17361 PWs)   bands (ev):

   -19.6765 -12.8400  -9.1457  -7.3402   1.6415   4.1823   4.9990   5.1872

          k = 0.0625 0.4691 0.0000 ( 17322 PWs)   bands (ev):

   -18.6276 -14.4052  -9.5065  -6.2614   0.0462   4.9990   5.7093   6.5069

          k = 0.0625-0.6134 0.0000 ( 17372 PWs)   bands (ev):

   -17.5016 -15.7976  -9.6908  -5.3833  -1.1049   4.9223   7.4107   8.2315

          k = 0.1250 0.2165 0.0000 ( 17389 PWs)   bands (ev):

   -21.3890  -9.2913  -9.1970  -8.1352   1.8130   2.5728   2.7605   3.1035

          k = 0.1250 0.2887 0.0000 ( 17435 PWs)   bands (ev):

   -20.7528 -10.4938  -8.9833  -8.5481   2.6918   3.4548   3.6655   3.8503

          k = 0.1250 0.3608 0.0000 ( 17416 PWs)   bands (ev):

   -19.9442 -11.9825  -9.6528  -7.6246   2.2677   3.8170   4.6045   4.8290

          k = 0.1250 0.4330 0.0000 ( 17357 PWs)   bands (ev):

   -18.9740 -13.5175 -10.1314  -6.5693   0.6819   5.1792   5.9802   6.2108

          k = 0.1250-0.6495 0.0000 ( 17349 PWs)   bands (ev):

   -17.8725 -14.9844 -10.4198  -5.5246  -0.7093   6.0636   6.8061   7.5592

          k = 0.1250-0.5774 0.0000 ( 17372 PWs)   bands (ev):

   -16.9931 -15.9894 -10.5163  -4.9813  -1.3729   6.0265   8.5074   8.6850

          k = 0.1875 0.3248 0.0000 ( 17387 PWs)   bands (ev):

   -20.0339 -11.4754 -10.0639  -7.7205   2.5191   3.6935   4.4676   4.6998

          k = 0.1875 0.3969 0.0000 ( 17412 PWs)   bands (ev):

   -19.1494 -12.6978 -10.8720  -6.7311   1.0993   4.9377   5.7049   5.9925

          k = 0.1875-0.6856 0.0000 ( 17362 PWs)   bands (ev):

   -18.1176 -14.0722 -11.3500  -5.6509  -0.2995   6.4110   7.1148   7.5419

          k = 0.1875-0.6134 0.0000 ( 17336 PWs)   bands (ev):

   -17.0180 -15.3738 -11.5734  -4.7278  -1.3933   7.5887   8.1148   8.3281

          k = 0.2500-0.7217 0.0000 ( 17309 PWs)   bands (ev):

   -18.2015 -13.4913 -11.9502  -5.6997  -0.1225   6.2906   6.9521   7.4142

          k = 0.2500-0.6495 0.0000 ( 17315 PWs)   bands (ev):

   -17.1353 -14.5416 -12.5587  -4.6258  -1.3099   7.8434   7.8559   9.0925

          k = 0.2500-0.5774 0.0000 ( 17304 PWs)   bands (ev):

   -16.2844 -15.4226 -12.7320  -3.9761  -1.9978   7.9916   9.1941   9.3683

          k = 0.3125-0.6134 0.0000 ( 17287 PWs)   bands (ev):

   -16.1064 -15.1108 -13.3891  -3.5725  -2.3343   7.7464   9.3372  10.0897

     the Fermi energy is    -3.1414 ev

!    total energy              =     -22.79127867 Ry
     Harris-Foulkes estimate   =     -22.79127867 Ry
     estimated scf accuracy    <          7.4E-10 Ry

     The total energy is the sum of the following terms:

     one-electron contribution =    -353.76094776 Ry
     hartree contribution      =     177.88996734 Ry
     xc contribution           =      -7.02453968 Ry
     ewald contribution        =     160.10424143 Ry
     smearing contrib. (-TS)   =      -0.00000000 Ry

     convergence has been achieved in   6 iterations

     Writing output data file graphene.save

     init_run     :      7.05s CPU      7.43s WALL (       1 calls)
     electrons    :    112.39s CPU    205.86s WALL (       1 calls)

     Called by init_run:
     wfcinit      :      4.73s CPU      4.97s WALL (       1 calls)
     potinit      :      1.03s CPU      1.08s WALL (       1 calls)

     Called by electrons:
     c_bands      :     90.91s CPU    166.83s WALL (       6 calls)
     sum_band     :     16.75s CPU     30.88s WALL (       6 calls)
     v_of_rho     :      2.18s CPU      3.71s WALL (       7 calls)
     newd         :      2.19s CPU      3.41s WALL (       7 calls)
     mix_rho      :      0.31s CPU      0.51s WALL (       6 calls)

     Called by c_bands:
     init_us_2    :      1.37s CPU      1.81s WALL (     390 calls)
     cegterg      :     89.02s CPU    163.91s WALL (     180 calls)

     Called by *egterg:
     h_psi        :     84.98s CPU    154.15s WALL (    1081 calls)
     s_psi        :      0.95s CPU      0.98s WALL (    1081 calls)
     g_psi        :      0.38s CPU      0.53s WALL (     871 calls)
     cdiaghg      :      0.42s CPU      0.65s WALL (    1051 calls)

     Called by h_psi:
     add_vuspsi   :      0.99s CPU      1.12s WALL (    1081 calls)

     General routines
     calbec       :      1.85s CPU      5.25s WALL (    1261 calls)
     fft          :      2.00s CPU      3.61s WALL (     107 calls)
     ffts         :      0.15s CPU      0.29s WALL (      13 calls)
     fftw         :     86.08s CPU    161.17s WALL (   10980 calls)
     interpolate  :      0.42s CPU      0.73s WALL (      13 calls)
     davcio       :      0.15s CPU      0.38s WALL (     570 calls)

     Parallel routines
     fft_scatter  :     26.20s CPU     89.22s WALL (   11100 calls)

     PWSCF        :  1m59.81s CPU     3m33.88s WALL


   This run was terminated on:   4: 9:49  26Jul2015            

=------------------------------------------------------------------------------=
   JOB DONE.
=------------------------------------------------------------------------------=
