
     Program PWSCF v.5.0.2 (svn rev. 9656) starts on 26Jul2015 at  1:33: 5 

     This program is part of the open-source Quantum ESPRESSO suite
     for quantum simulation of materials; please cite
         "P. Giannozzi et al., J. Phys.:Condens. Matter 21 395502 (2009);
          URL http://www.quantum-espresso.org", 
     in publications or presentations arising from this work. More details at
     http://www.quantum-espresso.org/quote.php

     Parallel version (MPI), running on     4 processors
     R & G space division:  proc/nbgrp/npool/nimage =       4

     Current dimensions of program PWSCF are:
     Max number of different atomic species (ntypx) = 10
     Max number of k-points (npk) =  40000
     Max angular momentum in pseudopotentials (lmaxx) =  3
     Waiting for input...
     Reading input from standard input
               file C.pbe-rrkjus.UPF: wavefunction(s)  2S 2P renormalized

     Subspace diagonalization in iterative solution of the eigenvalue problem:
     a serial algorithm will be used


     Parallelization info
     --------------------
     sticks:   dense  smooth     PW     G-vecs:    dense   smooth      PW
     Min         211     105     30                58955    20833    3536
     Max         212     106     31                58990    20896    3595
     Sum         847     421    121               235915    83421   14219



     bravais-lattice index     =            0
     lattice parameter (alat)  =       4.6600  a.u.
     unit-cell volume          =    1051.6461 (a.u.)^3
     number of atoms/cell      =            2
     number of atomic types    =            1
     number of electrons       =         8.00
     number of Kohn-Sham states=            8
     kinetic-energy cutoff     =      70.0000  Ry
     charge density cutoff     =     560.0000  Ry
     convergence threshold     =      1.0E-08
     mixing beta               =       0.7000
     number of iterations used =            8  plain     mixing
     Exchange-correlation      =  SLA  PW   PBE  PBE ( 1 4 3 4 0)
     EXX-fraction              =        0.00

     celldm(1)=   4.660000  celldm(2)=   0.000000  celldm(3)=   0.000000
     celldm(4)=   0.000000  celldm(5)=   0.000000  celldm(6)=   0.000000

     crystal axes: (cart. coord. in units of alat)
               a(1) = (   1.000000   0.000000   0.000000 )  
               a(2) = (   0.500000   0.866025   0.000000 )  
               a(3) = (   0.000000   0.000000  12.000000 )  

     reciprocal axes: (cart. coord. in units 2 pi/alat)
               b(1) = (  1.000000 -0.577350  0.000000 )  
               b(2) = (  0.000000  1.154701  0.000000 )  
               b(3) = (  0.000000  0.000000  0.083333 )  


     PseudoPot. # 1 for C  read from file:
     ./C.pbe-rrkjus.UPF
     MD5 check sum: 00fb224312de0c5b6853bd333518df6f
     Pseudo is Ultrasoft, Zval =  4.0
     Generated by new atomic code, or converted to UPF format
     Using radial grid of  627 points,  4 beta functions with: 
                l(1) =   0
                l(2) =   0
                l(3) =   1
                l(4) =   1
     Q(r) pseudized with 0 coefficients 


     atomic species   valence    mass     pseudopotential
        C              4.00    12.00000     C ( 1.00)

     24 Sym. Ops., with inversion, found (12 have fractional translation)



   Cartesian axes

     site n.     atom                  positions (alat units)
         1           C   tau(   1) = (   0.0000000   0.0000000   0.0000000  )
         2           C   tau(   2) = (   1.0000000   0.5773503   0.0000000  )

     number of k points=    14  gaussian smearing, width (Ry)=  0.0010
                       cart. coord. in units 2pi/alat
        k(    1) = (   0.0000000   0.0000000   0.0000000), wk =   0.0200000
        k(    2) = (   0.0000000   0.1154701   0.0000000), wk =   0.1200000
        k(    3) = (   0.0000000   0.2309401   0.0000000), wk =   0.1200000
        k(    4) = (   0.0000000   0.3464102   0.0000000), wk =   0.1200000
        k(    5) = (   0.0000000   0.4618802   0.0000000), wk =   0.1200000
        k(    6) = (   0.0000000  -0.5773503   0.0000000), wk =   0.0600000
        k(    7) = (   0.1000000   0.1732051   0.0000000), wk =   0.1200000
        k(    8) = (   0.1000000   0.2886751   0.0000000), wk =   0.2400000
        k(    9) = (   0.1000000   0.4041452   0.0000000), wk =   0.2400000
        k(   10) = (   0.1000000  -0.6350853   0.0000000), wk =   0.2400000
        k(   11) = (   0.2000000   0.3464102   0.0000000), wk =   0.1200000
        k(   12) = (   0.2000000  -0.6928203   0.0000000), wk =   0.2400000
        k(   13) = (   0.2000000  -0.5773503   0.0000000), wk =   0.1200000
        k(   14) = (   0.3000000  -0.6350853   0.0000000), wk =   0.1200000

     Dense  grid:   235915 G-vectors     FFT dimensions: (  36,  36, 432)

     Smooth grid:    83421 G-vectors     FFT dimensions: (  25,  25, 300)

     Largest allocated arrays     est. size (Mb)     dimensions
        Kohn-Sham Wavefunctions         0.34 Mb     (   2766,    8)
        NL pseudopotentials             0.68 Mb     (   2766,   16)
        Each V/rho on FFT grid          2.14 Mb     ( 139968)
        Each G-vector array             0.45 Mb     (  58990)
        G-vector shells                 0.13 Mb     (  17688)
     Largest temporary arrays     est. size (Mb)     dimensions
        Auxiliary wavefunctions         1.35 Mb     (   2766,   32)
        Each subspace H/S matrix        0.02 Mb     (  32,  32)
        Each <psi_i|beta_j> matrix      0.00 Mb     (     16,    8)
        Arrays for rho mixing          17.09 Mb     ( 139968,   8)

     Initial potential from superposition of free atoms

     starting charge    7.99989, renormalised to    8.00000

     negative rho (up, down):  0.251E-04 0.000E+00
     Starting wfc are    8 randomized atomic wfcs

     total cpu time spent up to now is        4.5 secs

     per-process dynamical memory:    30.7 Mb

     Self-consistent Calculation

     iteration #  1     ecut=    70.00 Ry     beta=0.70
     Davidson diagonalization with overlap
     ethr =  1.00E-02,  avg # of iterations =  4.9

     negative rho (up, down):  0.176E-04 0.000E+00

     total cpu time spent up to now is       12.9 secs

     total energy              =     -22.76059841 Ry
     Harris-Foulkes estimate   =     -22.88255578 Ry
     estimated scf accuracy    <       0.20283360 Ry

     iteration #  2     ecut=    70.00 Ry     beta=0.70
     Davidson diagonalization with overlap
     ethr =  2.54E-03,  avg # of iterations =  5.9

     negative rho (up, down):  0.166E-04 0.000E+00

     total cpu time spent up to now is       20.6 secs

     total energy              =     -22.79110407 Ry
     Harris-Foulkes estimate   =     -22.79123540 Ry
     estimated scf accuracy    <       0.00247373 Ry

     iteration #  3     ecut=    70.00 Ry     beta=0.70
     Davidson diagonalization with overlap
     ethr =  3.09E-05,  avg # of iterations = 11.0

     negative rho (up, down):  0.185E-04 0.000E+00

     total cpu time spent up to now is       31.0 secs

     total energy              =     -22.79142580 Ry
     Harris-Foulkes estimate   =     -22.79139693 Ry
     estimated scf accuracy    <       0.00014083 Ry

     iteration #  4     ecut=    70.00 Ry     beta=0.70
     Davidson diagonalization with overlap
     ethr =  1.76E-06,  avg # of iterations =  4.1

     negative rho (up, down):  0.187E-04 0.000E+00

     total cpu time spent up to now is       38.1 secs

     total energy              =     -22.79143128 Ry
     Harris-Foulkes estimate   =     -22.79143052 Ry
     estimated scf accuracy    <       0.00000081 Ry

     iteration #  5     ecut=    70.00 Ry     beta=0.70
     Davidson diagonalization with overlap
     ethr =  1.01E-08,  avg # of iterations =  2.5

     negative rho (up, down):  0.187E-04 0.000E+00

     total cpu time spent up to now is       44.9 secs

     total energy              =     -22.79143161 Ry
     Harris-Foulkes estimate   =     -22.79143160 Ry
     estimated scf accuracy    <       0.00000002 Ry

     iteration #  6     ecut=    70.00 Ry     beta=0.70
     Davidson diagonalization with overlap
     ethr =  3.08E-10,  avg # of iterations =  2.0

     negative rho (up, down):  0.186E-04 0.000E+00

     total cpu time spent up to now is       51.1 secs

     End of self-consistent calculation

          k = 0.0000 0.0000 0.0000 ( 10421 PWs)   bands (ev):

   -22.4650 -10.5836  -6.0520  -6.0520   0.2987   1.0356   1.2026   1.5528

          k = 0.0000 0.1155 0.0000 ( 10387 PWs)   bands (ev):

   -22.2295 -10.3021  -6.9629  -6.5233   0.6193   1.3615   1.5321   1.8806

          k = 0.0000 0.2309 0.0000 ( 10361 PWs)   bands (ev):

   -21.5265  -9.4689  -9.1302  -7.5348   1.5806   2.3363   2.5208   2.8629

          k = 0.0000 0.3464 0.0000 ( 10393 PWs)   bands (ev):

   -20.3691 -11.7332  -8.5199  -8.1305   2.8383   3.1756   3.9878   4.1682

          k = 0.0000 0.4619 0.0000 ( 10412 PWs)   bands (ev):

   -18.7911 -14.2997  -9.1863  -6.4508   0.1843   4.5192   5.4269   6.2318

          k = 0.0000-0.5774 0.0000 ( 10424 PWs)   bands (ev):

   -17.2324 -16.2048  -9.4186  -5.3317  -1.2953   4.4129   8.1470   8.3003

          k = 0.1000 0.1732 0.0000 ( 10359 PWs)   bands (ev):

   -21.7602  -9.7444  -8.3042  -7.4657   1.2608   2.0122   2.1913   2.5359

          k = 0.1000 0.2887 0.0000 ( 10384 PWs)   bands (ev):

   -20.8300 -10.4540  -8.7042  -8.6542   2.5415   3.3007   3.5095   3.8283

          k = 0.1000 0.4041 0.0000 ( 10418 PWs)   bands (ev):

   -19.4603 -12.9534  -9.6178  -7.1132   1.3442   4.4476   5.2510   5.4851

          k = 0.1000-0.6351 0.0000 ( 10430 PWs)   bands (ev):

   -17.7291 -15.3254 -10.0927  -5.4759  -0.9154   5.4473   6.9815   7.7651

          k = 0.2000 0.3464 0.0000 ( 10410 PWs)   bands (ev):

   -19.6869 -11.9192 -10.4566  -7.3446   1.9137   4.1362   4.9072   5.1573

          k = 0.2000-0.6928 0.0000 ( 10405 PWs)   bands (ev):

   -18.1386 -13.9049 -11.5249  -5.6771  -0.2781   6.3368   7.0235   7.4631

          k = 0.2000-0.5774 0.0000 ( 10402 PWs)   bands (ev):

   -16.6279 -15.6495 -11.8282  -4.4738  -1.6763   7.8244   8.3642   8.9328

          k = 0.3000-0.6351 0.0000 ( 10414 PWs)   bands (ev):

   -16.5128 -14.8288 -13.1553  -3.9975  -1.9651   7.7686   8.7070  10.0019

     the Fermi energy is    -2.1664 ev

!    total energy              =     -22.79143161 Ry
     Harris-Foulkes estimate   =     -22.79143161 Ry
     estimated scf accuracy    <          4.2E-10 Ry

     The total energy is the sum of the following terms:

     one-electron contribution =    -353.07994083 Ry
     hartree contribution      =     177.54321138 Ry
     xc contribution           =      -7.01537226 Ry
     ewald contribution        =     159.76067010 Ry
     smearing contrib. (-TS)   =      -0.00000000 Ry

     convergence has been achieved in   6 iterations

     Writing output data file graphene.save

     init_run     :      4.16s CPU      4.42s WALL (       1 calls)
     electrons    :     44.46s CPU     46.64s WALL (       1 calls)

     Called by init_run:
     wfcinit      :      1.47s CPU      1.53s WALL (       1 calls)
     potinit      :      1.19s CPU      1.24s WALL (       1 calls)

     Called by electrons:
     c_bands      :     28.63s CPU     29.83s WALL (       6 calls)
     sum_band     :      9.05s CPU      9.53s WALL (       6 calls)
     v_of_rho     :      2.95s CPU      3.21s WALL (       7 calls)
     newd         :      3.57s CPU      3.77s WALL (       7 calls)
     mix_rho      :      0.47s CPU      0.49s WALL (       6 calls)

     Called by c_bands:
     init_us_2    :      0.38s CPU      0.53s WALL (     182 calls)
     cegterg      :     28.12s CPU     29.13s WALL (      84 calls)

     Called by *egterg:
     h_psi        :     25.79s CPU     26.74s WALL (     523 calls)
     s_psi        :      0.49s CPU      0.48s WALL (     523 calls)
     g_psi        :      0.12s CPU      0.13s WALL (     425 calls)
     cdiaghg      :      0.19s CPU      0.19s WALL (     509 calls)

     Called by h_psi:
     add_vuspsi   :      0.44s CPU      0.46s WALL (     523 calls)

     General routines
     calbec       :      0.84s CPU      0.87s WALL (     607 calls)
     fft          :      2.93s CPU      3.17s WALL (     107 calls)
     ffts         :      0.09s CPU      0.10s WALL (      13 calls)
     fftw         :     17.41s CPU     18.31s WALL (    5110 calls)
     interpolate  :      0.59s CPU      0.60s WALL (      13 calls)
     davcio       :      0.14s CPU      0.21s WALL (     266 calls)

     Parallel routines
     fft_scatter  :     12.68s CPU     13.59s WALL (    5230 calls)

     PWSCF        :    48.89s CPU        51.37s WALL


   This run was terminated on:   1:33:56  26Jul2015            

=------------------------------------------------------------------------------=
   JOB DONE.
=------------------------------------------------------------------------------=
