
     Program PWSCF v.5.0.2 (svn rev. 9656) starts on 11Jul2015 at 20:19: 6 

     This program is part of the open-source Quantum ESPRESSO suite
     for quantum simulation of materials; please cite
         "P. Giannozzi et al., J. Phys.:Condens. Matter 21 395502 (2009);
          URL http://www.quantum-espresso.org", 
     in publications or presentations arising from this work. More details at
     http://www.quantum-espresso.org/quote.php

     Parallel version (MPI), running on     4 processors
     R & G space division:  proc/nbgrp/npool/nimage =       4

     Current dimensions of program PWSCF are:
     Max number of different atomic species (ntypx) = 10
     Max number of k-points (npk) =  40000
     Max angular momentum in pseudopotentials (lmaxx) =  3
     Waiting for input...
     Reading input from standard input
               file Cu.pbe.UPF: wavefunction(s)  4S 3D renormalized

     Subspace diagonalization in iterative solution of the eigenvalue problem:
     a serial algorithm will be used


     Parallelization info
     --------------------
     sticks:   dense  smooth     PW     G-vecs:    dense   smooth      PW
     Min         180     180     55                 3156     3156     533
     Max         181     181     57                 3157     3157     534
     Sum         721     721    223                12627    12627    2133



     bravais-lattice index     =            2
     lattice parameter (alat)  =      10.2000  a.u.
     unit-cell volume          =     265.3020 (a.u.)^3
     number of atoms/cell      =            2
     number of atomic types    =            1
     number of electrons       =        22.00
     number of Kohn-Sham states=           15
     kinetic-energy cutoff     =      50.0000  Ry
     charge density cutoff     =     200.0000  Ry
     convergence threshold     =      1.0E-07
     mixing beta               =       0.7000
     number of iterations used =            8  plain     mixing
     Exchange-correlation      =  SLA  PW   PBX  PBC ( 1 4 3 4 0)
     EXX-fraction              =        0.00

     celldm(1)=  10.200000  celldm(2)=   0.000000  celldm(3)=   0.000000
     celldm(4)=   0.000000  celldm(5)=   0.000000  celldm(6)=   0.000000

     crystal axes: (cart. coord. in units of alat)
               a(1) = (  -0.500000   0.000000   0.500000 )  
               a(2) = (   0.000000   0.500000   0.500000 )  
               a(3) = (  -0.500000   0.500000   0.000000 )  

     reciprocal axes: (cart. coord. in units 2 pi/alat)
               b(1) = ( -1.000000 -1.000000  1.000000 )  
               b(2) = (  1.000000  1.000000  1.000000 )  
               b(3) = ( -1.000000  1.000000 -1.000000 )  


     PseudoPot. # 1 for Cu read from file:
     ./Cu.pbe.UPF
     MD5 check sum: 0c51aa2b3b25e0d1c3270f17c0a46a12
     Pseudo is Projector augmented-wave + core cor, Zval = 11.0
     Generated using "atomic" code by A. Dal Corso  v.5.0.99 svn rev. 10869
     Shape of augmentation charge: BESSEL
     Using radial grid of 1199 points,  6 beta functions with: 
                l(1) =   0
                l(2) =   0
                l(3) =   1
                l(4) =   1
                l(5) =   2
                l(6) =   2
     Q(r) pseudized with 0 coefficients 


     atomic species   valence    mass     pseudopotential
        Cu            11.00    63.54600     Cu( 1.00)

     48 Sym. Ops., with inversion, found (24 have fractional translation)



   Cartesian axes

     site n.     atom                  positions (alat units)
         1           Cu  tau(   1) = (   0.0000000   0.0000000   0.0000000  )
         2           Cu  tau(   2) = (   0.2500000   0.2500000   0.2500000  )

     number of k points=    56  gaussian smearing, width (Ry)=  0.0030
                       cart. coord. in units 2pi/alat
        k(    1) = (   0.0000000   0.0000000   0.0000000), wk =   0.0015026
        k(    2) = (  -0.0909091   0.0909091  -0.0909091), wk =   0.0120210
        k(    3) = (  -0.1818182   0.1818182  -0.1818182), wk =   0.0120210
        k(    4) = (  -0.2727273   0.2727273  -0.2727273), wk =   0.0120210
        k(    5) = (  -0.3636364   0.3636364  -0.3636364), wk =   0.0120210
        k(    6) = (  -0.4545455   0.4545455  -0.4545455), wk =   0.0120210
        k(    7) = (   0.0000000   0.1818182   0.0000000), wk =   0.0090158
        k(    8) = (  -0.0909091   0.2727273  -0.0909091), wk =   0.0360631
        k(    9) = (  -0.1818182   0.3636364  -0.1818182), wk =   0.0360631
        k(   10) = (  -0.2727273   0.4545455  -0.2727273), wk =   0.0360631
        k(   11) = (  -0.3636364   0.5454545  -0.3636364), wk =   0.0360631
        k(   12) = (   0.5454545  -0.3636364   0.5454545), wk =   0.0360631
        k(   13) = (   0.4545455  -0.2727273   0.4545455), wk =   0.0360631
        k(   14) = (   0.3636364  -0.1818182   0.3636364), wk =   0.0360631
        k(   15) = (   0.2727273  -0.0909091   0.2727273), wk =   0.0360631
        k(   16) = (   0.1818182  -0.0000000   0.1818182), wk =   0.0180316
        k(   17) = (   0.0000000   0.3636364   0.0000000), wk =   0.0090158
        k(   18) = (  -0.0909091   0.4545455  -0.0909091), wk =   0.0360631
        k(   19) = (  -0.1818182   0.5454545  -0.1818182), wk =   0.0360631
        k(   20) = (  -0.2727273   0.6363636  -0.2727273), wk =   0.0360631
        k(   21) = (   0.6363636  -0.2727273   0.6363636), wk =   0.0360631
        k(   22) = (   0.5454545  -0.1818182   0.5454545), wk =   0.0360631
        k(   23) = (   0.4545455  -0.0909091   0.4545455), wk =   0.0360631
        k(   24) = (   0.3636364   0.0000000   0.3636364), wk =   0.0180316
        k(   25) = (   0.0000000   0.5454545   0.0000000), wk =   0.0090158
        k(   26) = (  -0.0909091   0.6363636  -0.0909091), wk =   0.0360631
        k(   27) = (  -0.1818182   0.7272727  -0.1818182), wk =   0.0360631
        k(   28) = (   0.7272727  -0.1818182   0.7272727), wk =   0.0360631
        k(   29) = (   0.6363636  -0.0909091   0.6363636), wk =   0.0360631
        k(   30) = (   0.5454545   0.0000000   0.5454545), wk =   0.0180316
        k(   31) = (   0.0000000   0.7272727   0.0000000), wk =   0.0090158
        k(   32) = (  -0.0909091   0.8181818  -0.0909091), wk =   0.0360631
        k(   33) = (   0.8181818  -0.0909091   0.8181818), wk =   0.0360631
        k(   34) = (   0.7272727   0.0000000   0.7272727), wk =   0.0180316
        k(   35) = (   0.0000000   0.9090909   0.0000000), wk =   0.0090158
        k(   36) = (   0.9090909  -0.0000000   0.9090909), wk =   0.0180316
        k(   37) = (  -0.1818182   0.3636364   0.0000000), wk =   0.0360631
        k(   38) = (  -0.2727273   0.4545455  -0.0909091), wk =   0.0721262
        k(   39) = (  -0.3636364   0.5454545  -0.1818182), wk =   0.0721262
        k(   40) = (   0.5454545  -0.3636364   0.7272727), wk =   0.0721262
        k(   41) = (  -0.1818182   0.5454545   0.0000000), wk =   0.0360631
        k(   42) = (  -0.2727273   0.6363636  -0.0909091), wk =   0.0721262
        k(   43) = (   0.6363636  -0.2727273   0.8181818), wk =   0.0721262
        k(   44) = (   0.5454545  -0.1818182   0.7272727), wk =   0.0721262
        k(   45) = (   0.4545455  -0.0909091   0.6363636), wk =   0.0721262
        k(   46) = (   0.3636364   0.0000000   0.5454545), wk =   0.0360631
        k(   47) = (  -0.1818182   0.7272727   0.0000000), wk =   0.0360631
        k(   48) = (   0.7272727  -0.1818182   0.9090909), wk =   0.0721262
        k(   49) = (   0.6363636  -0.0909091   0.8181818), wk =   0.0721262
        k(   50) = (   0.5454545   0.0000000   0.7272727), wk =   0.0360631
        k(   51) = (   0.8181818  -0.0909091   1.0000000), wk =   0.0360631
        k(   52) = (   0.7272727   0.0000000   0.9090909), wk =   0.0360631
        k(   53) = (   0.6363636  -0.2727273   1.0000000), wk =   0.0360631
        k(   54) = (   0.5454545  -0.1818182   0.9090909), wk =   0.0721262
        k(   55) = (   0.6363636  -0.0909091   1.0000000), wk =   0.0360631
        k(   56) = (   0.5454545   0.0000000   0.9090909), wk =   0.0360631

     Dense  grid:    12627 G-vectors     FFT dimensions: (  36,  36,  36)

     Largest allocated arrays     est. size (Mb)     dimensions
        Kohn-Sham Wavefunctions         0.09 Mb     (    408,   15)
        NL pseudopotentials             0.22 Mb     (    408,   36)
        Each V/rho on FFT grid          0.18 Mb     (  11664)
        Each G-vector array             0.02 Mb     (   3157)
        G-vector shells                 0.00 Mb     (    176)
     Largest temporary arrays     est. size (Mb)     dimensions
        Auxiliary wavefunctions         0.37 Mb     (    408,   60)
        Each subspace H/S matrix        0.05 Mb     (  60,  60)
        Each <psi_i|beta_j> matrix      0.01 Mb     (     36,   15)
        Arrays for rho mixing           1.42 Mb     (  11664,   8)

     Check: negative/imaginary core charge=   -0.000143    0.000000

     Initial potential from superposition of free atoms

     starting charge   21.99954, renormalised to   22.00000
     Starting wfc are   18 randomized atomic wfcs
     Checking if some PAW data can be deallocated... 

     total cpu time spent up to now is        3.1 secs

     per-process dynamical memory:    11.5 Mb

     Self-consistent Calculation

     iteration #  1     ecut=    50.00 Ry     beta=0.70
     Davidson diagonalization with overlap
     ethr =  1.00E-02,  avg # of iterations =  3.6

     Threshold (ethr) on eigenvalues was too large:
     Diagonalizing with lowered threshold

     Davidson diagonalization with overlap
     ethr =  1.75E-05,  avg # of iterations =  4.5

     total cpu time spent up to now is       12.6 secs

     total energy              =    -426.05704822 Ry
     Harris-Foulkes estimate   =    -426.05687671 Ry
     estimated scf accuracy    <       0.00506960 Ry

     iteration #  2     ecut=    50.00 Ry     beta=0.70
     Davidson diagonalization with overlap
     ethr =  2.30E-05,  avg # of iterations =  1.1

     total cpu time spent up to now is       15.9 secs

     total energy              =    -426.05640430 Ry
     Harris-Foulkes estimate   =    -426.05758794 Ry
     estimated scf accuracy    <       0.00192131 Ry

     iteration #  3     ecut=    50.00 Ry     beta=0.70
     Davidson diagonalization with overlap
     ethr =  8.73E-06,  avg # of iterations =  2.3

     total cpu time spent up to now is       20.1 secs

     total energy              =    -426.05658901 Ry
     Harris-Foulkes estimate   =    -426.05811138 Ry
     estimated scf accuracy    <       0.00487947 Ry

     iteration #  4     ecut=    50.00 Ry     beta=0.70
     Davidson diagonalization with overlap
     ethr =  8.73E-06,  avg # of iterations =  2.1

     total cpu time spent up to now is       24.2 secs

     total energy              =    -426.05731099 Ry
     Harris-Foulkes estimate   =    -426.05731320 Ry
     estimated scf accuracy    <       0.00000838 Ry

     iteration #  5     ecut=    50.00 Ry     beta=0.70
     Davidson diagonalization with overlap
     ethr =  3.81E-08,  avg # of iterations =  3.1

     total cpu time spent up to now is       28.6 secs

     total energy              =    -426.05731618 Ry
     Harris-Foulkes estimate   =    -426.05731612 Ry
     estimated scf accuracy    <       0.00000014 Ry

     iteration #  6     ecut=    50.00 Ry     beta=0.70
     Davidson diagonalization with overlap
     ethr =  6.27E-10,  avg # of iterations =  2.6

     total cpu time spent up to now is       32.8 secs

     End of self-consistent calculation

          k = 0.0000 0.0000 0.0000 (  1591 PWs)   bands (ev):

     0.7457   4.0295   4.0295   4.0295   4.0511   4.0511   5.0853   5.0853
     5.0853   5.7091   5.7091  16.4341  16.4341  16.4341  17.3881

          k =-0.0909 0.0909-0.0909 (  1570 PWs)   bands (ev):

     0.8721   3.9637   3.9637   4.0321   4.1373   4.1373   5.0598   5.0811
     5.0811   5.7098   5.7098  14.5985  15.8604  15.8604  17.9009

          k =-0.1818 0.1818-0.1818 (  1570 PWs)   bands (ev):

     1.2429   3.9241   3.9241   4.0428   4.2228   4.2228   4.9952   5.0831
     5.0831   5.7076   5.7076  12.2914  15.1109  15.1109  17.7681

          k =-0.2727 0.2727-0.2727 (  1573 PWs)   bands (ev):

     1.8243   3.9253   3.9253   4.0661   4.2586   4.2586   4.9340   5.1216
     5.1216   5.6944   5.6944  10.1503  14.4979  14.4979  17.6472

          k =-0.3636 0.3636-0.3636 (  1591 PWs)   bands (ev):

     2.5153   3.9636   3.9636   4.0896   4.2296   4.2296   4.9888   5.2008
     5.2008   5.6655   5.6655   8.2748  14.0670  14.0670  17.6552

          k =-0.4545 0.4545-0.4545 (  1574 PWs)   bands (ev):

     3.0447   4.0208   4.0208   4.0822   4.1685   4.1685   5.2742   5.2742
     5.3594   5.6330   5.6330   6.8170  13.8439  13.8439  17.7685

          k = 0.0000 0.1818 0.0000 (  1571 PWs)   bands (ev):

     0.9145   3.8996   4.0367   4.0367   4.0879   4.1891   4.9833   5.1157
     5.1157   5.6791   5.7364  15.0358  15.0358  15.5902  16.7355

          k =-0.0909 0.2727-0.0909 (  1572 PWs)   bands (ev):

     1.2047   3.8470   4.0100   4.0438   4.1673   4.2701   4.8887   5.1321
     5.1483   5.6503   5.7545  13.0725  14.2773  15.1535  16.9950

          k =-0.1818 0.3636-0.1818 (  1582 PWs)   bands (ev):

     1.7194   3.8314   4.0036   4.0559   4.2207   4.3300   4.8209   5.1424
     5.1989   5.6225   5.7603  10.8979  13.7080  14.4593  17.1564

          k =-0.2727 0.4545-0.2727 (  1585 PWs)   bands (ev):

     2.3863   3.8538   4.0252   4.0720   4.2170   4.3257   4.8392   5.2061
     5.2657   5.5987   5.7468   8.9334  13.3771  13.7772  16.9091

          k =-0.3636 0.5455-0.3636 (  1580 PWs)   bands (ev):

     3.0001   3.8980   4.0401   4.0774   4.1990   4.2664   5.0113   5.2898
     5.4305   5.6076   5.7113   7.2899  13.2197  13.3140  16.8211

          k = 0.5455-0.3636 0.5455 (  1583 PWs)   bands (ev):

     3.1951   3.9420   3.9921   4.0993   4.1876   4.2416   5.1603   5.2282
     5.6341   5.6619   5.7615   6.5564  12.8621  13.5269  16.9714

          k = 0.4545-0.2727 0.4545 (  1585 PWs)   bands (ev):

     2.8192   3.9221   3.9868   4.1051   4.1650   4.3095   5.0402   5.1249
     5.3958   5.5989   5.7174   7.7999  12.7493  13.9956  17.3598

          k = 0.3636-0.1818 0.3636 (  1583 PWs)   bands (ev):

     2.1527   3.8724   3.9909   4.0617   4.2078   4.3454   4.9076   5.0390
     5.2964   5.6080   5.7488   9.5670  12.8939  14.6704  17.9705

          k = 0.2727-0.0909 0.2727 (  1574 PWs)   bands (ev):

     1.5240   3.8604   3.9766   4.0458   4.2061   4.3140   4.9255   5.0135
     5.2166   5.6410   5.7536  11.6154  13.2823  15.4658  18.2500

          k = 0.1818-0.0000 0.1818 (  1560 PWs)   bands (ev):

     1.0803   3.8922   3.9774   4.0406   4.1585   4.2301   4.9941   5.0401
     5.1491   5.6768   5.7376  13.7473  13.9754  16.1373  17.7467

          k = 0.0000 0.3636 0.0000 (  1563 PWs)   bands (ev):

     1.4130   3.7793   4.0522   4.0522   4.1947   4.3359   4.7359   5.2106
     5.2106   5.5904   5.7845  13.4770  13.4770  13.9287  15.8476

          k =-0.0909 0.4545-0.0909 (  1575 PWs)   bands (ev):

     1.8514   3.7462   4.0535   4.0564   4.2645   4.4027   4.6151   5.2647
     5.2780   5.5380   5.8051  11.6959  12.8626  13.3758  15.9902

          k =-0.1818 0.5455-0.1818 (  1593 PWs)   bands (ev):

     2.4647   3.7519   4.0501   4.0560   4.3035   4.4092   4.6081   5.3206
     5.3383   5.5263   5.8173   9.7332  12.5028  12.5843  15.9627

          k =-0.2727 0.6364-0.2727 (  1591 PWs)   bands (ev):

     3.0935   3.7802   4.0374   4.0416   4.3283   4.3530   4.7524   5.2701
     5.5451   5.5977   5.8284   7.9857  11.8409  12.4404  15.9168

          k = 0.6364-0.2727 0.6364 (  1573 PWs)   bands (ev):

     3.4178   3.8151   3.9902   4.0505   4.2712   4.3758   4.9684   5.1612
     5.6872   5.7098   6.2516   6.6095  11.2833  12.6905  16.0700

          k = 0.5455-0.1818 0.5455 (  1574 PWs)   bands (ev):

     3.2206   3.8952   3.9207   4.1078   4.1709   4.4358   5.0392   5.0682
     5.6194   5.7073   5.7512   7.5338  10.9765  13.2314  16.4394

          k = 0.4545-0.0909 0.4545 (  1572 PWs)   bands (ev):

     2.6559   3.8636   3.9672   4.0810   4.1703   4.4607   4.9560   4.9600
     5.4738   5.5426   5.7814   9.1844  10.9524  14.0036  17.0291

          k = 0.3636 0.0000 0.3636 (  1570 PWs)   bands (ev):

     2.0216   3.8400   4.0191   4.0193   4.2037   4.4096   4.8942   4.9565
     5.3619   5.5655   5.7803  10.9683  11.3476  14.8796  17.8353

          k = 0.0000 0.5455 0.0000 (  1596 PWs)   bands (ev):

     2.2107   3.6961   4.0647   4.0647   4.3609   4.4291   4.4671   5.3691
     5.3691   5.4479   5.8427  11.8827  12.1745  12.1745  15.2069

          k =-0.0909 0.6364-0.0909 (  1584 PWs)   bands (ev):

     2.7520   3.6887   4.0475   4.0653   4.3290   4.4421   4.5176   5.3357
     5.4637   5.4939   5.8899  10.3882  11.4546  11.7377  15.3101

          k =-0.1818 0.7273-0.1818 (  1592 PWs)   bands (ev):

     3.3379   3.7107   3.9912   4.0509   4.3398   4.4981   4.5828   5.2182
     5.6122   5.6252   5.9804   8.7863  10.5389  11.6122  15.3117

          k = 0.7273-0.1818 0.7273 (  1591 PWs)   bands (ev):

     3.6709   3.7514   3.9776   4.0109   4.3174   4.5498   4.7670   5.0824
     5.7077   5.7788   6.4050   7.3553   9.8029  11.8227  15.4354

          k = 0.6364-0.0909 0.6364 (  1587 PWs)   bands (ev):

     3.5736   3.8522   3.9517   4.0301   4.2279   4.5942   4.9525   4.9650
     5.7657   5.7659   6.1981   7.5277   9.3397  12.3465  15.7535

          k = 0.5455 0.0000 0.5455 (  1576 PWs)   bands (ev):

     3.2050   3.8951   3.9023   4.1072   4.1433   4.5689   4.9034   5.0434
     5.6043   5.6638   5.7886   8.8452   9.3647  13.1163  16.2808

          k = 0.0000 0.7273 0.0000 (  1592 PWs)   bands (ev):

     3.2102   3.6733   4.0697   4.0697   4.1305   4.5518   4.5704   5.2603
     5.5582   5.5582   5.9953   9.7481  11.2071  11.2071  14.8403

          k =-0.0909 0.8182-0.0909 (  1590 PWs)   bands (ev):

     3.6976   3.7057   3.9520   4.0638   4.1802   4.5550   4.6662   5.1414
     5.6510   5.6652   6.1934   8.7288  10.3266  10.9910  14.9377

          k = 0.8182-0.0909 0.8182 (  1596 PWs)   bands (ev):

     3.7178   3.8834   3.9667   4.0395   4.3161   4.5998   4.7365   4.9990
     5.7226   5.7877   6.6598   7.8302   9.1235  11.1301  15.0280

          k = 0.7273 0.0000 0.7273 (  1588 PWs)   bands (ev):

     3.6922   3.9408   3.9556   3.9978   4.2824   4.7400   4.7915   4.9000
     5.7587   5.8332   6.8859   7.5570   8.3981  11.6059  15.2901

          k = 0.0000 0.9091 0.0000 (  1596 PWs)   bands (ev):

     3.7330   3.8839   4.0701   4.0701   4.1132   4.5078   4.8036   5.0401
     5.6971   5.6971   6.5391   7.8540  10.6754  10.6754  14.7271

          k = 0.9091-0.0000 0.9091 (  1596 PWs)   bands (ev):

     3.7690   3.8157   4.0620   4.0694   4.3645   4.4367   4.8965   4.9189
     5.7233   5.7461   7.1315   7.1374  10.0033  10.7242  14.8203

          k =-0.1818 0.3636 0.0000 (  1577 PWs)   bands (ev):

     1.5689   3.8043   4.0267   4.0451   4.2083   4.3488   4.7796   5.1252
     5.2502   5.5996   5.7779  12.2878  12.5993  14.8196  17.0158

          k =-0.2727 0.4545-0.0909 (  1581 PWs)   bands (ev):

     2.1357   3.7999   4.0239   4.0567   4.2298   4.4088   4.7317   5.1346
     5.3534   5.5525   5.7895  10.3478  12.0332  14.0569  17.1771

          k =-0.3636 0.5455-0.1818 (  1589 PWs)   bands (ev):

     2.7955   3.8286   3.9900   4.0998   4.2172   4.3978   4.8107   5.1962
     5.4422   5.5684   5.7808   8.4942  11.8202  13.2896  16.9892

          k = 0.5455-0.3636 0.7273 (  1575 PWs)   bands (ev):

     3.2817   3.8562   3.9524   4.1111   4.2367   4.3410   4.9883   5.1934
     5.6419   5.7019   5.8724   6.9702  11.8045  12.7799  16.8975

          k =-0.1818 0.5455 0.0000 (  1581 PWs)   bands (ev):

     2.3428   3.7249   4.0336   4.0738   4.3255   4.4693   4.5062   5.2855
     5.4122   5.4796   5.8335  10.9510  11.4419  12.7755  16.2624

          k =-0.2727 0.6364-0.0909 (  1589 PWs)   bands (ev):

     2.9539   3.7393   3.9812   4.0911   4.3552   4.4503   4.5781   5.2610
     5.5034   5.5605   5.8654   9.3040  10.9228  12.0376  16.3782

          k = 0.6364-0.2727 0.8182 (  1585 PWs)   bands (ev):

     3.4610   3.7621   3.9330   4.0925   4.3550   4.4381   4.7582   5.1573
     5.6653   5.7290   6.0268   7.7039  10.6084  11.6514  16.4220

          k = 0.5455-0.1818 0.7273 (  1571 PWs)   bands (ev):

     3.5804   3.8003   3.9061   4.0980   4.2915   4.4789   4.9190   5.0550
     5.7286   5.7583   6.4340   6.8957  10.2526  11.8461  16.6551

          k = 0.4545-0.0909 0.6364 (  1583 PWs)   bands (ev):

     3.2749   3.8341   3.9073   4.1246   4.2195   4.5246   4.8076   5.1314
     5.6266   5.6821   5.8325   8.2802  10.0604  12.4322  17.0743

          k = 0.3636 0.0000 0.5455 (  1578 PWs)   bands (ev):

     2.7098   3.8054   3.9686   4.0981   4.2200   4.5019   4.7135   5.1409
     5.4944   5.5232   5.8103   9.8240  10.3053  13.2444  17.6078

          k =-0.1818 0.7273 0.0000 (  1592 PWs)   bands (ev):

     3.2826   3.6945   3.9768   4.0841   4.2898   4.5103   4.5654   5.2315
     5.5794   5.5982   5.9870   9.5364  10.5884  11.0614  15.7977

          k = 0.7273-0.1818 0.9091 (  1592 PWs)   bands (ev):

     3.7153   3.7211   3.9070   4.0841   4.3657   4.5489   4.6370   5.0950
     5.6977   5.7387   6.2464   8.4007   9.6847  10.7637  15.9474

          k = 0.6364-0.0909 0.8182 (  1583 PWs)   bands (ev):

     3.7121   3.8435   3.9292   4.0718   4.3409   4.6477   4.7730   4.9531
     5.7591   5.8204   6.8339   7.3879   8.9561  11.0204  16.1556

          k = 0.5455 0.0000 0.7273 (  1586 PWs)   bands (ev):

     3.6190   3.8591   3.8826   4.0935   4.2671   4.6545   4.7949   5.0019
     5.7727   5.7858   6.2284   8.1086   8.7544  11.6145  16.5550

          k = 0.8182-0.0909 1.0000 (  1588 PWs)   bands (ev):

     3.7350   3.8440   3.9934   4.0810   4.2926   4.5162   4.7715   5.0132
     5.7306   5.7311   6.5898   7.9016  10.1430  10.2432  15.6142

          k = 0.7273 0.0000 0.9091 (  1591 PWs)   bands (ev):

     3.7358   3.8194   4.0440   4.0635   4.3887   4.5787   4.8260   4.8853
     5.7604   5.8070   7.2259   7.2946   9.0483  10.4427  15.8107

          k = 0.6364-0.2727 1.0000 (  1589 PWs)   bands (ev):

     3.4540   3.7579   3.9020   4.1135   4.3797   4.5552   4.5940   5.1448
     5.6699   5.6910   5.9857   8.8639   9.5696  11.1948  17.6446

          k = 0.5455-0.1818 0.9091 (  1584 PWs)   bands (ev):

     3.7200   3.7691   3.8970   4.1095   4.4049   4.5629   4.7518   4.9993
     5.7634   5.7993   6.4974   7.6932   9.3642  10.6027  17.6609

          k = 0.6364-0.0909 1.0000 (  1591 PWs)   bands (ev):

     3.7482   3.7757   3.9856   4.0950   4.5168   4.5257   4.7171   4.9385
     5.7915   5.7969   6.7861   7.9152   9.2625   9.7005  17.5613

          k = 0.5455 0.0000 0.9091 (  1595 PWs)   bands (ev):

     3.7373   3.7804   4.0084   4.0880   4.4692   4.6580   4.7432   4.8555
     5.8035   5.8332   7.1198   7.6338   8.7293   9.8389  17.7745

     the Fermi energy is     6.8796 ev

!    total energy              =    -426.05731619 Ry
     Harris-Foulkes estimate   =    -426.05731622 Ry
     estimated scf accuracy    <       0.00000003 Ry

     total all-electron energy =     -6619.816853 Ry

     The total energy is the sum of the following terms:

     one-electron contribution =    -116.90206231 Ry
     hartree contribution      =      57.94681864 Ry
     xc contribution           =     -73.50214309 Ry
     ewald contribution        =    -127.80442424 Ry
     one-center paw contrib.   =    -165.79541903 Ry
     smearing contrib. (-TS)   =      -0.00008616 Ry

     convergence has been achieved in   6 iterations

     Writing output data file Cu.save

     init_run     :      2.22s CPU      2.33s WALL (       1 calls)
     electrons    :     29.03s CPU     29.69s WALL (       1 calls)

     Called by init_run:
     wfcinit      :      1.30s CPU      1.35s WALL (       1 calls)
     potinit      :      0.33s CPU      0.36s WALL (       1 calls)

     Called by electrons:
     c_bands      :     22.73s CPU     23.18s WALL (       7 calls)
     sum_band     :      3.92s CPU      4.02s WALL (       7 calls)
     v_of_rho     :      0.13s CPU      0.14s WALL (       7 calls)
     newd         :      0.22s CPU      0.23s WALL (       7 calls)
     mix_rho      :      0.19s CPU      0.19s WALL (       7 calls)

     Called by c_bands:
     init_us_2    :      0.44s CPU      0.44s WALL (     840 calls)
     cegterg      :     21.65s CPU     22.05s WALL (     392 calls)

     Called by *egterg:
     h_psi        :     18.73s CPU     19.12s WALL (    1529 calls)
     s_psi        :      0.52s CPU      0.49s WALL (    1529 calls)
     g_psi        :      0.13s CPU      0.14s WALL (    1081 calls)
     cdiaghg      :      1.61s CPU      1.60s WALL (    1417 calls)

     Called by h_psi:
     add_vuspsi   :      0.51s CPU      0.51s WALL (    1529 calls)

     General routines
     calbec       :      0.83s CPU      0.79s WALL (    1921 calls)
     fft          :      0.06s CPU      0.07s WALL (      93 calls)
     fftw         :     19.21s CPU     19.07s WALL (   40022 calls)
     davcio       :      0.07s CPU      0.08s WALL (    1232 calls)

     Parallel routines
     fft_scatter  :      3.47s CPU      3.60s WALL (   40115 calls)

     PAW routines
     PAW_pot      :      2.15s CPU      2.26s WALL (       7 calls)
     PAW_ddot     :      0.18s CPU      0.18s WALL (      37 calls)
     PAW_symme    :      0.01s CPU      0.01s WALL (      14 calls)

     PWSCF        :    32.32s CPU        33.12s WALL


   This run was terminated on:  20:19:39  11Jul2015            

=------------------------------------------------------------------------------=
   JOB DONE.
=------------------------------------------------------------------------------=
