
     Program PWSCF v.5.0.2 (svn rev. 9656) starts on 12Jul2015 at  2:11:18 

     This program is part of the open-source Quantum ESPRESSO suite
     for quantum simulation of materials; please cite
         "P. Giannozzi et al., J. Phys.:Condens. Matter 21 395502 (2009);
          URL http://www.quantum-espresso.org", 
     in publications or presentations arising from this work. More details at
     http://www.quantum-espresso.org/quote.php

     Parallel version (MPI), running on     4 processors
     R & G space division:  proc/nbgrp/npool/nimage =       4

     Current dimensions of program PWSCF are:
     Max number of different atomic species (ntypx) = 10
     Max number of k-points (npk) =  40000
     Max angular momentum in pseudopotentials (lmaxx) =  3
     Waiting for input...
     Reading input from standard input
               file Al.pbe-n-kjpaw_psl.0.1.UPF: wavefunction(s)  3S renormalized

     Subspace diagonalization in iterative solution of the eigenvalue problem:
     a serial algorithm will be used


     Parallelization info
     --------------------
     sticks:   dense  smooth     PW     G-vecs:    dense   smooth      PW
     Min         109     109     37                 1545     1545     284
     Max         110     110     38                 1546     1546     285
     Sum         439     439    151                 6183     6183    1139



     bravais-lattice index     =            2
     lattice parameter (alat)  =       7.6300  a.u.
     unit-cell volume          =     111.0487 (a.u.)^3
     number of atoms/cell      =            1
     number of atomic types    =            1
     number of electrons       =         3.00
     number of Kohn-Sham states=            6
     kinetic-energy cutoff     =      55.0000  Ry
     charge density cutoff     =     220.0000  Ry
     convergence threshold     =      1.0E-07
     mixing beta               =       0.7000
     number of iterations used =            8  plain     mixing
     Exchange-correlation      =  SLA  PW   PBX  PBC ( 1 4 3 4 0)
     EXX-fraction              =        0.00

     celldm(1)=   7.630000  celldm(2)=   0.000000  celldm(3)=   0.000000
     celldm(4)=   0.000000  celldm(5)=   0.000000  celldm(6)=   0.000000

     crystal axes: (cart. coord. in units of alat)
               a(1) = (  -0.500000   0.000000   0.500000 )  
               a(2) = (   0.000000   0.500000   0.500000 )  
               a(3) = (  -0.500000   0.500000   0.000000 )  

     reciprocal axes: (cart. coord. in units 2 pi/alat)
               b(1) = ( -1.000000 -1.000000  1.000000 )  
               b(2) = (  1.000000  1.000000  1.000000 )  
               b(3) = ( -1.000000  1.000000 -1.000000 )  


     PseudoPot. # 1 for Al read from file:
     ./Al.pbe-n-kjpaw_psl.0.1.UPF
     MD5 check sum: 023d9faf819c76fc4df1f064efe7b7b2
     Pseudo is Projector augmented-wave + core cor, Zval =  3.0
     Generated using "atomic" code by A. Dal Corso  v.5.0.2 svn rev. 9415
     Shape of augmentation charge: PSQ
     Using radial grid of 1135 points,  4 beta functions with: 
                l(1) =   0
                l(2) =   0
                l(3) =   1
                l(4) =   1
     Q(r) pseudized with 0 coefficients 


     atomic species   valence    mass     pseudopotential
        Al             3.00    26.98154     Al( 1.00)

     48 Sym. Ops., with inversion, found



   Cartesian axes

     site n.     atom                  positions (alat units)
         1           Al  tau(   1) = (   0.0000000   0.0000000   0.0000000  )

     number of k points=    35  gaussian smearing, width (Ry)=  0.0030
                       cart. coord. in units 2pi/alat
        k(    1) = (   0.0000000   0.0000000   0.0000000), wk =   0.0027435
        k(    2) = (  -0.1111111   0.1111111  -0.1111111), wk =   0.0219479
        k(    3) = (  -0.2222222   0.2222222  -0.2222222), wk =   0.0219479
        k(    4) = (  -0.3333333   0.3333333  -0.3333333), wk =   0.0219479
        k(    5) = (  -0.4444444   0.4444444  -0.4444444), wk =   0.0219479
        k(    6) = (   0.0000000   0.2222222   0.0000000), wk =   0.0164609
        k(    7) = (  -0.1111111   0.3333333  -0.1111111), wk =   0.0658436
        k(    8) = (  -0.2222222   0.4444444  -0.2222222), wk =   0.0658436
        k(    9) = (  -0.3333333   0.5555556  -0.3333333), wk =   0.0658436
        k(   10) = (   0.5555556  -0.3333333   0.5555556), wk =   0.0658436
        k(   11) = (   0.4444444  -0.2222222   0.4444444), wk =   0.0658436
        k(   12) = (   0.3333333  -0.1111111   0.3333333), wk =   0.0658436
        k(   13) = (   0.2222222  -0.0000000   0.2222222), wk =   0.0329218
        k(   14) = (   0.0000000   0.4444444   0.0000000), wk =   0.0164609
        k(   15) = (  -0.1111111   0.5555556  -0.1111111), wk =   0.0658436
        k(   16) = (  -0.2222222   0.6666667  -0.2222222), wk =   0.0658436
        k(   17) = (   0.6666667  -0.2222222   0.6666667), wk =   0.0658436
        k(   18) = (   0.5555556  -0.1111111   0.5555556), wk =   0.0658436
        k(   19) = (   0.4444444   0.0000000   0.4444444), wk =   0.0329218
        k(   20) = (   0.0000000   0.6666667   0.0000000), wk =   0.0164609
        k(   21) = (  -0.1111111   0.7777778  -0.1111111), wk =   0.0658436
        k(   22) = (   0.7777778  -0.1111111   0.7777778), wk =   0.0658436
        k(   23) = (   0.6666667  -0.0000000   0.6666667), wk =   0.0329218
        k(   24) = (   0.0000000   0.8888889   0.0000000), wk =   0.0164609
        k(   25) = (   0.8888889   0.0000000   0.8888889), wk =   0.0329218
        k(   26) = (  -0.2222222   0.4444444   0.0000000), wk =   0.0658436
        k(   27) = (  -0.3333333   0.5555556  -0.1111111), wk =   0.1316872
        k(   28) = (   0.5555556  -0.3333333   0.7777778), wk =   0.1316872
        k(   29) = (  -0.2222222   0.6666667   0.0000000), wk =   0.0658436
        k(   30) = (   0.6666667  -0.2222222   0.8888889), wk =   0.1316872
        k(   31) = (   0.5555556  -0.1111111   0.7777778), wk =   0.1316872
        k(   32) = (   0.4444444   0.0000000   0.6666667), wk =   0.0658436
        k(   33) = (   0.7777778  -0.1111111   1.0000000), wk =   0.0658436
        k(   34) = (   0.6666667  -0.0000000   0.8888889), wk =   0.0658436
        k(   35) = (   0.5555556  -0.1111111   1.0000000), wk =   0.0658436

     Dense  grid:     6183 G-vectors     FFT dimensions: (  25,  25,  25)

     Largest allocated arrays     est. size (Mb)     dimensions
        Kohn-Sham Wavefunctions         0.02 Mb     (    193,    6)
        NL pseudopotentials             0.02 Mb     (    193,    8)
        Each V/rho on FFT grid          0.07 Mb     (   4375)
        Each G-vector array             0.01 Mb     (   1546)
        G-vector shells                 0.00 Mb     (    110)
     Largest temporary arrays     est. size (Mb)     dimensions
        Auxiliary wavefunctions         0.07 Mb     (    193,   24)
        Each subspace H/S matrix        0.01 Mb     (  24,  24)
        Each <psi_i|beta_j> matrix      0.00 Mb     (      8,    6)
        Arrays for rho mixing           0.53 Mb     (   4375,   8)

     Check: negative/imaginary core charge=   -0.000004    0.000000

     Initial potential from superposition of free atoms

     starting charge    2.99771, renormalised to    3.00000
     Starting wfc are    4 randomized atomic wfcs
     Checking if some PAW data can be deallocated... 

     total cpu time spent up to now is        0.8 secs

     per-process dynamical memory:     8.9 Mb

     Self-consistent Calculation

     iteration #  1     ecut=    55.00 Ry     beta=0.70
     Davidson diagonalization with overlap
     ethr =  1.00E-02,  avg # of iterations =  4.8

     Threshold (ethr) on eigenvalues was too large:
     Diagonalizing with lowered threshold

     Davidson diagonalization with overlap
     ethr =  1.94E-04,  avg # of iterations =  2.3

     total cpu time spent up to now is        1.5 secs

     total energy              =     -39.50075992 Ry
     Harris-Foulkes estimate   =     -39.50211075 Ry
     estimated scf accuracy    <       0.00551369 Ry

     iteration #  2     ecut=    55.00 Ry     beta=0.70
     Davidson diagonalization with overlap
     ethr =  1.84E-04,  avg # of iterations =  1.0

     total cpu time spent up to now is        1.8 secs

     total energy              =     -39.50071884 Ry
     Harris-Foulkes estimate   =     -39.50082335 Ry
     estimated scf accuracy    <       0.00040692 Ry

     iteration #  3     ecut=    55.00 Ry     beta=0.70
     Davidson diagonalization with overlap
     ethr =  1.36E-05,  avg # of iterations =  1.9

     total cpu time spent up to now is        2.1 secs

     total energy              =     -39.50073999 Ry
     Harris-Foulkes estimate   =     -39.50074055 Ry
     estimated scf accuracy    <       0.00000137 Ry

     iteration #  4     ecut=    55.00 Ry     beta=0.70
     Davidson diagonalization with overlap
     ethr =  4.58E-08,  avg # of iterations =  3.0

     total cpu time spent up to now is        2.5 secs

     total energy              =     -39.50076860 Ry
     Harris-Foulkes estimate   =     -39.50074162 Ry
     estimated scf accuracy    <       0.00000010 Ry

     iteration #  5     ecut=    55.00 Ry     beta=0.70
     Davidson diagonalization with overlap
     ethr =  3.49E-09,  avg # of iterations =  3.1

     total cpu time spent up to now is        2.8 secs

     total energy              =     -39.50073880 Ry
     Harris-Foulkes estimate   =     -39.50077159 Ry
     estimated scf accuracy    <       0.00007834 Ry

     iteration #  6     ecut=    55.00 Ry     beta=0.70
     Davidson diagonalization with overlap
     ethr =  3.49E-09,  avg # of iterations =  3.1

     total cpu time spent up to now is        3.1 secs

     End of self-consistent calculation

          k = 0.0000 0.0000 0.0000 (   749 PWs)   bands (ev):

    -3.2225  20.5729  20.5729  22.0517  22.0518  22.0518

          k =-0.1111 0.1111-0.1111 (   770 PWs)   bands (ev):

    -2.8866  16.8263  19.7454  19.7454  22.6968  23.3704

          k =-0.2222 0.2222-0.2222 (   778 PWs)   bands (ev):

    -1.8833  12.4232  18.9715  18.9715  22.3673  23.2083

          k =-0.3333 0.3333-0.3333 (   769 PWs)   bands (ev):

    -0.2265   8.4316  18.7177  18.7177  21.3121  21.3121

          k =-0.4444 0.4444-0.4444 (   769 PWs)   bands (ev):

     2.0609   4.9659  19.0203  19.0203  19.8891  19.8891

          k = 0.0000 0.2222 0.0000 (   769 PWs)   bands (ev):

    -2.7747  18.1827  18.1827  18.4473  21.1078  23.3100

          k =-0.1111 0.3333-0.1111 (   777 PWs)   bands (ev):

    -1.9944  14.0693  17.1567  18.6189  20.5404  22.0538

          k =-0.2222 0.4444-0.2222 (   775 PWs)   bands (ev):

    -0.5565   9.9676  16.6944  18.2123  18.4509  24.4102

          k =-0.3333 0.5556-0.3333 (   770 PWs)   bands (ev):

     1.5194   6.3360  16.6281  16.8010  18.5240  22.8631

          k = 0.5556-0.3333 0.5556 (   764 PWs)   bands (ev):

     3.2358   4.2275  15.5355  17.4787  19.2651  21.8245

          k = 0.4444-0.2222 0.4444 (   769 PWs)   bands (ev):

     0.7584   7.4829  15.0403  18.7246  20.5858  21.3367

          k = 0.3333-0.1111 0.3333 (   766 PWs)   bands (ev):

    -1.1078  11.2626  15.1661  20.4931  21.4039  22.4335

          k = 0.2222-0.0000 0.2222 (   763 PWs)   bands (ev):

    -2.3283  15.0937  16.2643  21.4431  22.3055  23.4746

          k = 0.0000 0.4444 0.0000 (   769 PWs)   bands (ev):

    -1.4397  15.9180  15.9180  15.9361  17.5774  19.3775

          k =-0.1111 0.5556-0.1111 (   762 PWs)   bands (ev):

    -0.2271  12.0267  15.0714  15.2551  16.7013  20.3804

          k =-0.2222 0.6667-0.2222 (   764 PWs)   bands (ev):

     1.6255   8.3005  13.1561  15.1659  16.8406  23.3966

          k = 0.6667-0.2222 0.6667 (   766 PWs)   bands (ev):

     4.0757   5.0777  11.8415  15.6501  17.4346  25.1835

          k = 0.5556-0.1111 0.5556 (   769 PWs)   bands (ev):

     2.3837   7.1146  11.1812  16.7088  18.6136  24.5212

          k = 0.4444 0.0000 0.4444 (   770 PWs)   bands (ev):

     0.3213  10.1547  11.6680  18.3382  20.3451  24.0309

          k = 0.0000 0.6667 0.0000 (   769 PWs)   bands (ev):

     0.7559  12.3211  14.1907  14.3958  14.3958  17.9181

          k =-0.1111 0.7778-0.1111 (   765 PWs)   bands (ev):

     2.3742  10.1217  10.8445  14.1120  15.4426  19.2794

          k = 0.7778-0.1111 0.7778 (   759 PWs)   bands (ev):

     4.5755   7.4339   8.7042  14.4021  16.0084  22.7146

          k = 0.6667-0.0000 0.6667 (   752 PWs)   bands (ev):

     4.6213   6.8533   8.3330  15.2671  17.0336  26.6374

          k = 0.0000 0.8889 0.0000 (   761 PWs)   bands (ev):

     3.7302   7.7999  13.3086  13.6348  13.6348  17.1214

          k = 0.8889 0.0000 0.8889 (   768 PWs)   bands (ev):

     5.2074   6.5491  10.3972  13.7313  15.0168  18.8970

          k =-0.2222 0.4444 0.0000 (   770 PWs)   bands (ev):

    -0.9974  12.6326  13.9952  17.9703  19.9857  21.7947

          k =-0.3333 0.5556-0.1111 (   766 PWs)   bands (ev):

     0.6487   9.1959  13.1876  15.8961  20.4331  23.1359

          k = 0.5556-0.3333 0.7778 (   767 PWs)   bands (ev):

     2.9191   5.8001  13.4152  14.4233  20.8166  21.8188

          k =-0.2222 0.6667 0.0000 (   766 PWs)   bands (ev):

     1.1914  10.9823  12.2433  12.9369  18.4183  20.4865

          k = 0.6667-0.2222 0.8889 (   761 PWs)   bands (ev):

     3.2329   7.9401  10.9570  12.0759  19.3165  23.1658

          k = 0.5556-0.1111 0.7778 (   761 PWs)   bands (ev):

     4.9216   5.8684   9.9221  12.6945  20.1374  24.3657

          k = 0.4444 0.0000 0.6667 (   764 PWs)   bands (ev):

     2.4898   8.5030  10.0071  13.9961  21.4276  23.2892

          k = 0.7778-0.1111 1.0000 (   758 PWs)   bands (ev):

     4.1541   8.2108  10.1555  11.6570  17.6123  19.7636

          k = 0.6667-0.0000 0.8889 (   754 PWs)   bands (ev):

     6.0298   7.2260   7.7366  11.6179  18.9252  22.8516

          k = 0.5556-0.1111 1.0000 (   751 PWs)   bands (ev):

     5.4168   7.6778   8.9362   9.7950  22.5317  23.5653

     the Fermi energy is     7.9251 ev

!    total energy              =     -39.50074157 Ry
     Harris-Foulkes estimate   =     -39.50074157 Ry
     estimated scf accuracy    <          6.1E-12 Ry

     total all-electron energy =      -485.643523 Ry

     The total energy is the sum of the following terms:

     one-electron contribution =       3.17105128 Ry
     hartree contribution      =       0.00586096 Ry
     xc contribution           =      -3.03179827 Ry
     ewald contribution        =      -5.40809419 Ry
     one-center paw contrib.   =     -34.23766392 Ry
     smearing contrib. (-TS)   =      -0.00009743 Ry

     convergence has been achieved in   6 iterations

     Writing output data file Al.save

     init_run     :      0.38s CPU      0.41s WALL (       1 calls)
     electrons    :      2.23s CPU      2.33s WALL (       1 calls)

     Called by init_run:
     wfcinit      :      0.08s CPU      0.09s WALL (       1 calls)
     potinit      :      0.06s CPU      0.07s WALL (       1 calls)

     Called by electrons:
     c_bands      :      1.52s CPU      1.60s WALL (       7 calls)
     sum_band     :      0.27s CPU      0.29s WALL (       7 calls)
     v_of_rho     :      0.05s CPU      0.05s WALL (       7 calls)
     newd         :      0.02s CPU      0.02s WALL (       7 calls)
     mix_rho      :      0.06s CPU      0.06s WALL (       7 calls)

     Called by c_bands:
     init_us_2    :      0.07s CPU      0.07s WALL (     525 calls)
     cegterg      :      1.46s CPU      1.53s WALL (     245 calls)

     Called by *egterg:
     h_psi        :      1.14s CPU      1.20s WALL (     952 calls)
     s_psi        :      0.02s CPU      0.02s WALL (     952 calls)
     g_psi        :      0.01s CPU      0.02s WALL (     672 calls)
     cdiaghg      :      0.22s CPU      0.20s WALL (     882 calls)

     Called by h_psi:
     add_vuspsi   :      0.02s CPU      0.02s WALL (     952 calls)

     General routines
     calbec       :      0.04s CPU      0.04s WALL (    1197 calls)
     fft          :      0.02s CPU      0.02s WALL (      93 calls)
     fftw         :      1.12s CPU      1.16s WALL (    9556 calls)
     davcio       :      0.01s CPU      0.02s WALL (     770 calls)

     Parallel routines
     fft_scatter  :      0.38s CPU      0.41s WALL (    9649 calls)

     PAW routines
     PAW_pot      :      0.34s CPU      0.35s WALL (       7 calls)
     PAW_ddot     :      0.06s CPU      0.06s WALL (      37 calls)
     PAW_symme    :      0.00s CPU      0.00s WALL (      14 calls)

     PWSCF        :     3.20s CPU         3.36s WALL


   This run was terminated on:   2:11:22  12Jul2015            

=------------------------------------------------------------------------------=
   JOB DONE.
=------------------------------------------------------------------------------=
