
     Program PWSCF v.5.0.2 (svn rev. 9656) starts on 26Jul2015 at  3:27:46 

     This program is part of the open-source Quantum ESPRESSO suite
     for quantum simulation of materials; please cite
         "P. Giannozzi et al., J. Phys.:Condens. Matter 21 395502 (2009);
          URL http://www.quantum-espresso.org", 
     in publications or presentations arising from this work. More details at
     http://www.quantum-espresso.org/quote.php

     Parallel version (MPI), running on     4 processors
     R & G space division:  proc/nbgrp/npool/nimage =       4

     Current dimensions of program PWSCF are:
     Max number of different atomic species (ntypx) = 10
     Max number of k-points (npk) =  40000
     Max angular momentum in pseudopotentials (lmaxx) =  3
     Waiting for input...
     Reading input from standard input
               file C.pbe-rrkjus.UPF: wavefunction(s)  2S 2P renormalized

     Subspace diagonalization in iterative solution of the eigenvalue problem:
     a serial algorithm will be used


     Parallelization info
     --------------------
     sticks:   dense  smooth     PW     G-vecs:    dense   smooth      PW
     Min         211     133     40                58589    30008    5082
     Max         212     134     41                58614    30032    5117
     Sum         847     535    163               234415   120067   20413



     bravais-lattice index     =            0
     lattice parameter (alat)  =       4.6500  a.u.
     unit-cell volume          =    1044.8904 (a.u.)^3
     number of atoms/cell      =            2
     number of atomic types    =            1
     number of electrons       =         8.00
     number of Kohn-Sham states=            8
     kinetic-energy cutoff     =      90.0000  Ry
     charge density cutoff     =     560.0000  Ry
     convergence threshold     =      1.0E-08
     mixing beta               =       0.7000
     number of iterations used =            8  plain     mixing
     Exchange-correlation      =  SLA  PW   PBE  PBE ( 1 4 3 4 0)
     EXX-fraction              =        0.00

     celldm(1)=   4.650000  celldm(2)=   0.000000  celldm(3)=   0.000000
     celldm(4)=   0.000000  celldm(5)=   0.000000  celldm(6)=   0.000000

     crystal axes: (cart. coord. in units of alat)
               a(1) = (   1.000000   0.000000   0.000000 )  
               a(2) = (   0.500000   0.866025   0.000000 )  
               a(3) = (   0.000000   0.000000  12.000000 )  

     reciprocal axes: (cart. coord. in units 2 pi/alat)
               b(1) = (  1.000000 -0.577350  0.000000 )  
               b(2) = (  0.000000  1.154701  0.000000 )  
               b(3) = (  0.000000  0.000000  0.083333 )  


     PseudoPot. # 1 for C  read from file:
     ./C.pbe-rrkjus.UPF
     MD5 check sum: 00fb224312de0c5b6853bd333518df6f
     Pseudo is Ultrasoft, Zval =  4.0
     Generated by new atomic code, or converted to UPF format
     Using radial grid of  627 points,  4 beta functions with: 
                l(1) =   0
                l(2) =   0
                l(3) =   1
                l(4) =   1
     Q(r) pseudized with 0 coefficients 


     atomic species   valence    mass     pseudopotential
        C              4.00    12.00000     C ( 1.00)

     24 Sym. Ops., with inversion, found (12 have fractional translation)



   Cartesian axes

     site n.     atom                  positions (alat units)
         1           C   tau(   1) = (   0.0000000   0.0000000   0.0000000  )
         2           C   tau(   2) = (   1.0000000   0.5773503   0.0000000  )

     number of k points=    24  gaussian smearing, width (Ry)=  0.0010
                       cart. coord. in units 2pi/alat
        k(    1) = (   0.0000000   0.0000000   0.0000000), wk =   0.0102041
        k(    2) = (   0.0000000   0.0824786   0.0000000), wk =   0.0612245
        k(    3) = (   0.0000000   0.1649572   0.0000000), wk =   0.0612245
        k(    4) = (   0.0000000   0.2474358   0.0000000), wk =   0.0612245
        k(    5) = (   0.0000000   0.3299144   0.0000000), wk =   0.0612245
        k(    6) = (   0.0000000   0.4123931   0.0000000), wk =   0.0612245
        k(    7) = (   0.0000000   0.4948717   0.0000000), wk =   0.0612245
        k(    8) = (   0.0000000  -0.5773503   0.0000000), wk =   0.0306122
        k(    9) = (   0.0714286   0.1237179   0.0000000), wk =   0.0612245
        k(   10) = (   0.0714286   0.2061965   0.0000000), wk =   0.1224490
        k(   11) = (   0.0714286   0.2886751   0.0000000), wk =   0.1224490
        k(   12) = (   0.0714286   0.3711537   0.0000000), wk =   0.1224490
        k(   13) = (   0.0714286   0.4536324   0.0000000), wk =   0.1224490
        k(   14) = (   0.0714286  -0.6185896   0.0000000), wk =   0.1224490
        k(   15) = (   0.1428571   0.2474358   0.0000000), wk =   0.0612245
        k(   16) = (   0.1428571   0.3299144   0.0000000), wk =   0.1224490
        k(   17) = (   0.1428571   0.4123931   0.0000000), wk =   0.1224490
        k(   18) = (   0.1428571  -0.6598289   0.0000000), wk =   0.1224490
        k(   19) = (   0.1428571  -0.5773503   0.0000000), wk =   0.0612245
        k(   20) = (   0.2142857   0.3711537   0.0000000), wk =   0.0612245
        k(   21) = (   0.2142857  -0.7010682   0.0000000), wk =   0.1224490
        k(   22) = (   0.2142857  -0.6185896   0.0000000), wk =   0.1224490
        k(   23) = (   0.2857143  -0.6598289   0.0000000), wk =   0.0612245
        k(   24) = (   0.2857143  -0.5773503   0.0000000), wk =   0.0612245

     Dense  grid:   234415 G-vectors     FFT dimensions: (  36,  36, 432)

     Smooth grid:   120067 G-vectors     FFT dimensions: (  30,  30, 360)

     Largest allocated arrays     est. size (Mb)     dimensions
        Kohn-Sham Wavefunctions         0.47 Mb     (   3863,    8)
        NL pseudopotentials             0.94 Mb     (   3863,   16)
        Each V/rho on FFT grid          2.14 Mb     ( 139968)
        Each G-vector array             0.45 Mb     (  58604)
        G-vector shells                 0.13 Mb     (  17216)
     Largest temporary arrays     est. size (Mb)     dimensions
        Auxiliary wavefunctions         1.89 Mb     (   3863,   32)
        Each subspace H/S matrix        0.02 Mb     (  32,  32)
        Each <psi_i|beta_j> matrix      0.00 Mb     (     16,    8)
        Arrays for rho mixing          17.09 Mb     ( 139968,   8)

     Initial potential from superposition of free atoms

     starting charge    7.99989, renormalised to    8.00000

     negative rho (up, down):  0.254E-04 0.000E+00
     Starting wfc are    8 randomized atomic wfcs

     total cpu time spent up to now is        6.7 secs

     per-process dynamical memory:    31.0 Mb

     Self-consistent Calculation

     iteration #  1     ecut=    90.00 Ry     beta=0.70
     Davidson diagonalization with overlap
     ethr =  1.00E-02,  avg # of iterations =  5.3

     negative rho (up, down):  0.175E-04 0.000E+00

     total cpu time spent up to now is       27.0 secs

     total energy              =     -22.75974500 Ry
     Harris-Foulkes estimate   =     -22.88420657 Ry
     estimated scf accuracy    <       0.20655555 Ry

     iteration #  2     ecut=    90.00 Ry     beta=0.70
     Davidson diagonalization with overlap
     ethr =  2.58E-03,  avg # of iterations =  4.8

     negative rho (up, down):  0.169E-04 0.000E+00

     total cpu time spent up to now is       45.5 secs

     total energy              =     -22.79088270 Ry
     Harris-Foulkes estimate   =     -22.79101858 Ry
     estimated scf accuracy    <       0.00249998 Ry

     iteration #  3     ecut=    90.00 Ry     beta=0.70
     Davidson diagonalization with overlap
     ethr =  3.12E-05,  avg # of iterations = 10.8

     negative rho (up, down):  0.186E-04 0.000E+00

     total cpu time spent up to now is       72.7 secs

     total energy              =     -22.79122441 Ry
     Harris-Foulkes estimate   =     -22.79119391 Ry
     estimated scf accuracy    <       0.00013936 Ry

     iteration #  4     ecut=    90.00 Ry     beta=0.70
     Davidson diagonalization with overlap
     ethr =  1.74E-06,  avg # of iterations =  4.4

     negative rho (up, down):  0.187E-04 0.000E+00

     total cpu time spent up to now is       89.6 secs

     total energy              =     -22.79123006 Ry
     Harris-Foulkes estimate   =     -22.79122925 Ry
     estimated scf accuracy    <       0.00000087 Ry

     iteration #  5     ecut=    90.00 Ry     beta=0.70
     Davidson diagonalization with overlap
     ethr =  1.09E-08,  avg # of iterations =  2.6

     negative rho (up, down):  0.187E-04 0.000E+00

     total cpu time spent up to now is      105.6 secs

     total energy              =     -22.79123043 Ry
     Harris-Foulkes estimate   =     -22.79123042 Ry
     estimated scf accuracy    <       0.00000002 Ry

     iteration #  6     ecut=    90.00 Ry     beta=0.70
     Davidson diagonalization with overlap
     ethr =  3.10E-10,  avg # of iterations =  2.0

     negative rho (up, down):  0.186E-04 0.000E+00

     total cpu time spent up to now is      119.2 secs

     End of self-consistent calculation

          k = 0.0000 0.0000 0.0000 ( 14791 PWs)   bands (ev):

   -22.4915 -10.6018  -6.0249  -6.0249   0.3036   1.0417   1.2090   1.5613

          k = 0.0000 0.0825 0.0000 ( 14919 PWs)   bands (ev):

   -22.3708 -10.4572  -6.5070  -6.2788   0.4678   1.2087   1.3779   1.7293

          k = 0.0000 0.1650 0.0000 ( 14938 PWs)   bands (ev):

   -22.0096 -10.0262  -7.7706  -6.9083   0.9607   1.7093   1.8845   2.2331

          k = 0.0000 0.2474 0.0000 ( 14988 PWs)   bands (ev):

   -21.4109  -9.4727  -9.3182  -7.6701   1.7812   2.5403   2.7288   3.0714

          k = 0.0000 0.3299 0.0000 ( 15044 PWs)   bands (ev):

   -20.5805 -11.3449  -8.3818  -8.3551   2.9259   3.2623   3.7637   3.9106

          k = 0.0000 0.4124 0.0000 ( 15092 PWs)   bands (ev):

   -19.5294 -13.2205  -8.9403  -7.1884   1.3270   4.3610   4.7807   5.2144

          k = 0.0000 0.4949 0.0000 ( 15092 PWs)   bands (ev):

   -18.2868 -14.9855  -9.2920  -5.9773  -0.4215   4.5579   6.1957   7.0212

          k = 0.0000-0.5774 0.0000 ( 15084 PWs)   bands (ev):

   -17.2296 -16.2209  -9.4118  -5.3191  -1.2671   4.5015   8.1870   8.3399

          k = 0.0714 0.1237 0.0000 ( 14949 PWs)   bands (ev):

   -22.1298 -10.1693  -7.3144  -6.7867   0.7965   1.5426   1.7156   2.0652

          k = 0.0714 0.2062 0.0000 ( 14983 PWs)   bands (ev):

   -21.6499  -9.5994  -8.6899  -7.5920   1.4536   2.2090   2.3911   2.7366

          k = 0.0714 0.2887 0.0000 ( 15048 PWs)   bands (ev):

   -20.9354 -10.4123  -8.7619  -8.3950   2.4374   3.1973   3.4043   3.7347

          k = 0.0714 0.3712 0.0000 ( 15064 PWs)   bands (ev):

   -19.9943 -12.2549  -9.0618  -7.6892   2.2277   3.7422   4.5469   4.7547

          k = 0.0714 0.4536 0.0000 ( 15100 PWs)   bands (ev):

   -18.8436 -14.0644  -9.5309  -6.4664   0.3570   5.1172   5.4320   6.1899

          k = 0.0714-0.6186 0.0000 ( 15080 PWs)   bands (ev):

   -17.5583 -15.6943  -9.7719  -5.4008  -1.0582   5.0472   7.3089   8.1227

          k = 0.1429 0.2474 0.0000 ( 15067 PWs)   bands (ev):

   -21.0541  -9.8597  -8.8987  -8.6668   2.2746   3.0395   3.2355   3.5751

          k = 0.1429 0.3299 0.0000 ( 15097 PWs)   bands (ev):

   -20.2288 -11.3524  -9.6269  -7.9448   2.8296   3.4202   4.1990   4.4175

          k = 0.1429 0.4124 0.0000 ( 15108 PWs)   bands (ev):

   -19.1861 -13.0467 -10.2890  -6.7857   1.0530   4.8828   5.6704   5.9368

          k = 0.1429-0.6598 0.0000 ( 15117 PWs)   bands (ev):

   -17.9576 -14.7252 -10.6780  -5.5656  -0.5822   6.4549   6.7122   7.4075

          k = 0.1429-0.5774 0.0000 ( 15095 PWs)   bands (ev):

   -16.9204 -15.9208 -10.8070  -4.8779  -1.4163   6.4403   8.6031   8.7893

          k = 0.2143 0.3712 0.0000 ( 15135 PWs)   bands (ev):

   -19.3013 -12.3820 -10.8984  -6.8959   1.3486   4.7229   5.4894   5.7685

          k = 0.2143-0.7011 0.0000 ( 15123 PWs)   bands (ev):

   -18.1737 -13.7230 -11.7108  -5.6832  -0.1827   6.3304   7.0064   7.4562

          k = 0.2143-0.6186 0.0000 ( 15104 PWs)   bands (ev):

   -16.9260 -15.1683 -12.0546  -4.5565  -1.4816   8.1528   8.1583   8.3923

          k = 0.2857-0.6598 0.0000 ( 15105 PWs)   bands (ev):

   -16.9989 -14.4691 -12.8680  -4.4610  -1.4501   7.8171   8.0385   9.3118

          k = 0.2857-0.5774 0.0000 ( 15087 PWs)   bands (ev):

   -15.9957 -15.3315 -13.2632  -3.5698  -2.3502   7.7878   9.6494   9.7592

     the Fermi energy is    -3.3376 ev

!    total energy              =     -22.79123043 Ry
     Harris-Foulkes estimate   =     -22.79123043 Ry
     estimated scf accuracy    <          4.0E-10 Ry

     The total energy is the sum of the following terms:

     one-electron contribution =    -353.76103160 Ry
     hartree contribution      =     177.89011779 Ry
     xc contribution           =      -7.02455806 Ry
     ewald contribution        =     160.10424143 Ry
     smearing contrib. (-TS)   =      -0.00000000 Ry

     convergence has been achieved in   6 iterations

     Writing output data file graphene.save

     init_run     :      6.18s CPU      6.63s WALL (       1 calls)
     electrons    :    104.87s CPU    112.52s WALL (       1 calls)

     Called by init_run:
     wfcinit      :      3.84s CPU      4.05s WALL (       1 calls)
     potinit      :      1.06s CPU      1.14s WALL (       1 calls)

     Called by electrons:
     c_bands      :     81.44s CPU     86.86s WALL (       6 calls)
     sum_band     :     17.39s CPU     18.97s WALL (       6 calls)
     v_of_rho     :      2.67s CPU      2.92s WALL (       7 calls)
     newd         :      2.85s CPU      3.21s WALL (       7 calls)
     mix_rho      :      0.42s CPU      0.46s WALL (       6 calls)

     Called by c_bands:
     init_us_2    :      0.82s CPU      1.03s WALL (     312 calls)
     cegterg      :     80.13s CPU     85.29s WALL (     144 calls)

     Called by *egterg:
     h_psi        :     76.13s CPU     80.95s WALL (     883 calls)
     s_psi        :      0.98s CPU      0.98s WALL (     883 calls)
     g_psi        :      0.35s CPU      0.36s WALL (     715 calls)
     cdiaghg      :      0.43s CPU      0.45s WALL (     859 calls)

     Called by h_psi:
     add_vuspsi   :      0.93s CPU      0.96s WALL (     883 calls)

     General routines
     calbec       :      1.36s CPU      1.46s WALL (    1027 calls)
     fft          :      2.52s CPU      2.90s WALL (     107 calls)
     ffts         :      0.16s CPU      0.18s WALL (      13 calls)
     fftw         :     71.60s CPU     76.97s WALL (    8740 calls)
     interpolate  :      0.53s CPU      0.58s WALL (      13 calls)
     davcio       :      0.27s CPU      0.37s WALL (     456 calls)

     Parallel routines
     fft_scatter  :     26.18s CPU     31.00s WALL (    8860 calls)

     PWSCF        :  1m51.38s CPU     1m59.51s WALL


   This run was terminated on:   3:29:46  26Jul2015            

=------------------------------------------------------------------------------=
   JOB DONE.
=------------------------------------------------------------------------------=
