
     Program PWSCF v.5.0.2 (svn rev. 9656) starts on 12Jul2015 at  2:44:27 

     This program is part of the open-source Quantum ESPRESSO suite
     for quantum simulation of materials; please cite
         "P. Giannozzi et al., J. Phys.:Condens. Matter 21 395502 (2009);
          URL http://www.quantum-espresso.org", 
     in publications or presentations arising from this work. More details at
     http://www.quantum-espresso.org/quote.php

     Parallel version (MPI), running on     4 processors
     R & G space division:  proc/nbgrp/npool/nimage =       4

     Current dimensions of program PWSCF are:
     Max number of different atomic species (ntypx) = 10
     Max number of k-points (npk) =  40000
     Max angular momentum in pseudopotentials (lmaxx) =  3
     Waiting for input...
     Reading input from standard input
               file Al.pbe-n-kjpaw_psl.0.1.UPF: wavefunction(s)  3S renormalized

     Subspace diagonalization in iterative solution of the eigenvalue problem:
     a serial algorithm will be used


     Parallelization info
     --------------------
     sticks:   dense  smooth     PW     G-vecs:    dense   smooth      PW
     Min         218     218     64                 4315     4315     709
     Max         220     220     67                 4316     4316     710
     Sum         877     877    265                17261    17261    2837



     bravais-lattice index     =            2
     lattice parameter (alat)  =       7.6300  a.u.
     unit-cell volume          =     111.0487 (a.u.)^3
     number of atoms/cell      =            1
     number of atomic types    =            1
     number of electrons       =         3.00
     number of Kohn-Sham states=            6
     kinetic-energy cutoff     =     110.0000  Ry
     charge density cutoff     =     440.0000  Ry
     convergence threshold     =      1.0E-07
     mixing beta               =       0.7000
     number of iterations used =            8  plain     mixing
     Exchange-correlation      =  SLA  PW   PBX  PBC ( 1 4 3 4 0)
     EXX-fraction              =        0.00

     celldm(1)=   7.630000  celldm(2)=   0.000000  celldm(3)=   0.000000
     celldm(4)=   0.000000  celldm(5)=   0.000000  celldm(6)=   0.000000

     crystal axes: (cart. coord. in units of alat)
               a(1) = (  -0.500000   0.000000   0.500000 )  
               a(2) = (   0.000000   0.500000   0.500000 )  
               a(3) = (  -0.500000   0.500000   0.000000 )  

     reciprocal axes: (cart. coord. in units 2 pi/alat)
               b(1) = ( -1.000000 -1.000000  1.000000 )  
               b(2) = (  1.000000  1.000000  1.000000 )  
               b(3) = ( -1.000000  1.000000 -1.000000 )  


     PseudoPot. # 1 for Al read from file:
     ./Al.pbe-n-kjpaw_psl.0.1.UPF
     MD5 check sum: 023d9faf819c76fc4df1f064efe7b7b2
     Pseudo is Projector augmented-wave + core cor, Zval =  3.0
     Generated using "atomic" code by A. Dal Corso  v.5.0.2 svn rev. 9415
     Shape of augmentation charge: PSQ
     Using radial grid of 1135 points,  4 beta functions with: 
                l(1) =   0
                l(2) =   0
                l(3) =   1
                l(4) =   1
     Q(r) pseudized with 0 coefficients 


     atomic species   valence    mass     pseudopotential
        Al             3.00    26.98154     Al( 1.00)

     48 Sym. Ops., with inversion, found



   Cartesian axes

     site n.     atom                  positions (alat units)
         1           Al  tau(   1) = (   0.0000000   0.0000000   0.0000000  )

     number of k points=    20  gaussian smearing, width (Ry)=  0.0030
                       cart. coord. in units 2pi/alat
        k(    1) = (   0.0000000   0.0000000   0.0000000), wk =   0.0058309
        k(    2) = (  -0.1428571   0.1428571  -0.1428571), wk =   0.0466472
        k(    3) = (  -0.2857143   0.2857143  -0.2857143), wk =   0.0466472
        k(    4) = (  -0.4285714   0.4285714  -0.4285714), wk =   0.0466472
        k(    5) = (   0.0000000   0.2857143   0.0000000), wk =   0.0349854
        k(    6) = (  -0.1428571   0.4285714  -0.1428571), wk =   0.1399417
        k(    7) = (  -0.2857143   0.5714286  -0.2857143), wk =   0.1399417
        k(    8) = (   0.5714286  -0.2857143   0.5714286), wk =   0.1399417
        k(    9) = (   0.4285714  -0.1428571   0.4285714), wk =   0.1399417
        k(   10) = (   0.2857143  -0.0000000   0.2857143), wk =   0.0699708
        k(   11) = (   0.0000000   0.5714286   0.0000000), wk =   0.0349854
        k(   12) = (  -0.1428571   0.7142857  -0.1428571), wk =   0.1399417
        k(   13) = (   0.7142857  -0.1428571   0.7142857), wk =   0.1399417
        k(   14) = (   0.5714286   0.0000000   0.5714286), wk =   0.0699708
        k(   15) = (   0.0000000   0.8571429   0.0000000), wk =   0.0349854
        k(   16) = (   0.8571429  -0.0000000   0.8571429), wk =   0.0699708
        k(   17) = (  -0.2857143   0.5714286   0.0000000), wk =   0.1399417
        k(   18) = (   0.5714286  -0.2857143   0.8571429), wk =   0.2798834
        k(   19) = (   0.7142857  -0.1428571   1.0000000), wk =   0.1399417
        k(   20) = (   0.5714286   0.0000000   0.8571429), wk =   0.1399417

     Dense  grid:    17261 G-vectors     FFT dimensions: (  40,  40,  40)

     Largest allocated arrays     est. size (Mb)     dimensions
        Kohn-Sham Wavefunctions         0.05 Mb     (    553,    6)
        NL pseudopotentials             0.07 Mb     (    553,    8)
        Each V/rho on FFT grid          0.24 Mb     (  16000)
        Each G-vector array             0.03 Mb     (   4316)
        G-vector shells                 0.00 Mb     (    216)
     Largest temporary arrays     est. size (Mb)     dimensions
        Auxiliary wavefunctions         0.20 Mb     (    553,   24)
        Each subspace H/S matrix        0.01 Mb     (  24,  24)
        Each <psi_i|beta_j> matrix      0.00 Mb     (      8,    6)
        Arrays for rho mixing           1.95 Mb     (  16000,   8)

     Initial potential from superposition of free atoms

     starting charge    2.99771, renormalised to    3.00000
     Starting wfc are    4 randomized atomic wfcs
     Checking if some PAW data can be deallocated... 

     total cpu time spent up to now is        2.2 secs

     per-process dynamical memory:    10.4 Mb

     Self-consistent Calculation

     iteration #  1     ecut=   110.00 Ry     beta=0.70
     Davidson diagonalization with overlap
     ethr =  1.00E-02,  avg # of iterations =  5.0

     Threshold (ethr) on eigenvalues was too large:
     Diagonalizing with lowered threshold

     Davidson diagonalization with overlap
     ethr =  2.04E-04,  avg # of iterations =  2.4

     total cpu time spent up to now is        6.6 secs

     total energy              =     -39.50640036 Ry
     Harris-Foulkes estimate   =     -39.50777370 Ry
     estimated scf accuracy    <       0.00582542 Ry

     iteration #  2     ecut=   110.00 Ry     beta=0.70
     Davidson diagonalization with overlap
     ethr =  1.94E-04,  avg # of iterations =  1.0

     total cpu time spent up to now is        8.2 secs

     total energy              =     -39.50635955 Ry
     Harris-Foulkes estimate   =     -39.50646659 Ry
     estimated scf accuracy    <       0.00043220 Ry

     iteration #  3     ecut=   110.00 Ry     beta=0.70
     Davidson diagonalization with overlap
     ethr =  1.44E-05,  avg # of iterations =  1.9

     total cpu time spent up to now is        9.8 secs

     total energy              =     -39.50637860 Ry
     Harris-Foulkes estimate   =     -39.50637908 Ry
     estimated scf accuracy    <       0.00000118 Ry

     iteration #  4     ecut=   110.00 Ry     beta=0.70
     Davidson diagonalization with overlap
     ethr =  3.95E-08,  avg # of iterations =  3.0

     total cpu time spent up to now is       11.7 secs

     End of self-consistent calculation

          k = 0.0000 0.0000 0.0000 (  2109 PWs)   bands (ev):

    -3.2236  20.5719  20.5719  22.0489  22.0489  22.0489

          k =-0.1429 0.1429-0.1429 (  2133 PWs)   bands (ev):

    -2.6686  15.5393  19.4758  19.4758  22.6126  23.8487

          k =-0.2857 0.2857-0.2857 (  2154 PWs)   bands (ev):

    -1.0164  10.0811  18.7575  18.7576  22.0791  22.2628

          k =-0.4286 0.4286-0.4286 (  2165 PWs)   bands (ev):

     1.6959   5.4253  18.9410  18.9410  20.0571  20.0571

          k = 0.0000 0.2857 0.0000 (  2145 PWs)   bands (ev):

    -2.4840  17.4623  17.4623  17.6683  20.6241  21.6563

          k =-0.1429 0.4286-0.1429 (  2149 PWs)   bands (ev):

    -1.1991  12.2239  16.3752  17.9068  18.3331  22.2115

          k =-0.2857 0.5714-0.2857 (  2143 PWs)   bands (ev):

     1.1569   7.3303  15.8096  16.2303  17.9739  24.0068

          k = 0.5714-0.2857 0.5714 (  2167 PWs)   bands (ev):

     3.2913   4.5497  14.3230  17.0309  18.8726  22.6172

          k = 0.4286-0.1429 0.4286 (  2157 PWs)   bands (ev):

     0.2556   8.8515  13.8523  18.7727  20.7299  22.1196

          k = 0.2857-0.0000 0.2857 (  2145 PWs)   bands (ev):

    -1.7484  13.5211  14.8592  21.3546  22.0085  23.3727

          k = 0.0000 0.5714 0.0000 (  2165 PWs)   bands (ev):

    -0.2888  14.4941  14.8358  14.9535  14.9535  18.4739

          k =-0.1429 0.7143-0.1429 (  2162 PWs)   bands (ev):

     1.6910  10.1626  11.6540  14.4847  15.9714  20.4945

          k = 0.7143-0.1429 0.7143 (  2172 PWs)   bands (ev):

     4.6644   5.9418   9.8072  14.9646  16.6763  25.0573

          k = 0.5714 0.0000 0.5714 (  2157 PWs)   bands (ev):

     2.5869   8.0645   9.5741  16.3952  18.2868  26.6215

          k = 0.0000 0.8571 0.0000 (  2160 PWs)   bands (ev):

     3.2680   8.3864  13.3813  13.6952  13.6952  17.1854

          k = 0.8571-0.0000 0.8571 (  2185 PWs)   bands (ev):

     5.3411   6.6848   9.5213  13.8548  15.2685  19.8787

          k =-0.2857 0.5714 0.0000 (  2160 PWs)   bands (ev):

     0.4358  10.7956  12.2514  15.2069  20.3137  22.0531

          k = 0.5714-0.2857 0.8571 (  2180 PWs)   bands (ev):

     3.1153   6.7776  11.8041  13.0731  21.2261  22.4983

          k = 0.7143-0.1429 1.0000 (  2170 PWs)   bands (ev):

     3.9718   9.0406   9.4299  11.0118  19.0057  20.9713

          k = 0.5714 0.0000 0.8571 (  2170 PWs)   bands (ev):

     6.0514   6.7015   8.1590  11.2303  20.6417  25.0694

     the Fermi energy is     8.0734 ev

!    total energy              =     -39.50638030 Ry
     Harris-Foulkes estimate   =     -39.50638032 Ry
     estimated scf accuracy    <       0.00000003 Ry

     total all-electron energy =      -485.649162 Ry

     The total energy is the sum of the following terms:

     one-electron contribution =       3.16449471 Ry
     hartree contribution      =       0.00632360 Ry
     xc contribution           =      -3.03179374 Ry
     ewald contribution        =      -5.40809419 Ry
     one-center paw contrib.   =     -34.23725279 Ry
     smearing contrib. (-TS)   =      -0.00005789 Ry

     convergence has been achieved in   4 iterations

     Writing output data file Al.save

     init_run     :      0.81s CPU      1.69s WALL (       1 calls)
     electrons    :      4.75s CPU      9.49s WALL (       1 calls)

     Called by init_run:
     wfcinit      :      0.22s CPU      0.69s WALL (       1 calls)
     potinit      :      0.10s CPU      0.22s WALL (       1 calls)

     Called by electrons:
     c_bands      :      3.47s CPU      6.97s WALL (       5 calls)
     sum_band     :      0.83s CPU      1.66s WALL (       5 calls)
     v_of_rho     :      0.17s CPU      0.29s WALL (       5 calls)
     newd         :      0.05s CPU      0.12s WALL (       5 calls)
     mix_rho      :      0.04s CPU      0.06s WALL (       5 calls)

     Called by c_bands:
     init_us_2    :      0.07s CPU      0.11s WALL (     220 calls)
     cegterg      :      3.39s CPU      6.87s WALL (     100 calls)

     Called by *egterg:
     h_psi        :      3.28s CPU      6.85s WALL (     386 calls)
     s_psi        :      0.01s CPU      0.02s WALL (     386 calls)
     g_psi        :      0.02s CPU      0.02s WALL (     266 calls)
     cdiaghg      :      0.09s CPU      0.16s WALL (     346 calls)

     Called by h_psi:
     add_vuspsi   :      0.02s CPU      0.03s WALL (     386 calls)

     General routines
     calbec       :      0.07s CPU      0.18s WALL (     486 calls)
     fft          :      0.11s CPU      0.27s WALL (      67 calls)
     fftw         :      3.60s CPU      7.59s WALL (    4052 calls)
     davcio       :      0.01s CPU      0.02s WALL (     320 calls)

     Parallel routines
     fft_scatter  :      1.15s CPU      4.71s WALL (    4119 calls)

     PAW routines
     PAW_pot      :      0.26s CPU      0.54s WALL (       5 calls)
     PAW_ddot     :      0.02s CPU      0.04s WALL (      12 calls)
     PAW_symme    :      0.00s CPU      0.00s WALL (      10 calls)

     PWSCF        :     6.20s CPU        12.01s WALL


   This run was terminated on:   2:44:39  12Jul2015            

=------------------------------------------------------------------------------=
   JOB DONE.
=------------------------------------------------------------------------------=
