
     Program PWSCF v.5.0.2 (svn rev. 9656) starts on 12Jul2015 at  1:32:42 

     This program is part of the open-source Quantum ESPRESSO suite
     for quantum simulation of materials; please cite
         "P. Giannozzi et al., J. Phys.:Condens. Matter 21 395502 (2009);
          URL http://www.quantum-espresso.org", 
     in publications or presentations arising from this work. More details at
     http://www.quantum-espresso.org/quote.php

     Parallel version (MPI), running on     4 processors
     R & G space division:  proc/nbgrp/npool/nimage =       4

     Current dimensions of program PWSCF are:
     Max number of different atomic species (ntypx) = 10
     Max number of k-points (npk) =  40000
     Max angular momentum in pseudopotentials (lmaxx) =  3
     Waiting for input...
     Reading input from standard input
               file Al.pbe-n-kjpaw_psl.0.1.UPF: wavefunction(s)  3S renormalized

     Subspace diagonalization in iterative solution of the eigenvalue problem:
     a serial algorithm will be used


     Parallelization info
     --------------------
     sticks:   dense  smooth     PW     G-vecs:    dense   smooth      PW
     Min         118     118     37                 1712     1712     309
     Max         119     119     38                 1715     1715     312
     Sum         475     475    151                 6855     6855    1243



     bravais-lattice index     =            2
     lattice parameter (alat)  =       7.6000  a.u.
     unit-cell volume          =     109.7440 (a.u.)^3
     number of atoms/cell      =            1
     number of atomic types    =            1
     number of electrons       =         3.00
     number of Kohn-Sham states=            6
     kinetic-energy cutoff     =      60.0000  Ry
     charge density cutoff     =     240.0000  Ry
     convergence threshold     =      1.0E-07
     mixing beta               =       0.7000
     number of iterations used =            8  plain     mixing
     Exchange-correlation      =  SLA  PW   PBX  PBC ( 1 4 3 4 0)
     EXX-fraction              =        0.00

     celldm(1)=   7.600000  celldm(2)=   0.000000  celldm(3)=   0.000000
     celldm(4)=   0.000000  celldm(5)=   0.000000  celldm(6)=   0.000000

     crystal axes: (cart. coord. in units of alat)
               a(1) = (  -0.500000   0.000000   0.500000 )  
               a(2) = (   0.000000   0.500000   0.500000 )  
               a(3) = (  -0.500000   0.500000   0.000000 )  

     reciprocal axes: (cart. coord. in units 2 pi/alat)
               b(1) = ( -1.000000 -1.000000  1.000000 )  
               b(2) = (  1.000000  1.000000  1.000000 )  
               b(3) = ( -1.000000  1.000000 -1.000000 )  


     PseudoPot. # 1 for Al read from file:
     ./Al.pbe-n-kjpaw_psl.0.1.UPF
     MD5 check sum: 023d9faf819c76fc4df1f064efe7b7b2
     Pseudo is Projector augmented-wave + core cor, Zval =  3.0
     Generated using "atomic" code by A. Dal Corso  v.5.0.2 svn rev. 9415
     Shape of augmentation charge: PSQ
     Using radial grid of 1135 points,  4 beta functions with: 
                l(1) =   0
                l(2) =   0
                l(3) =   1
                l(4) =   1
     Q(r) pseudized with 0 coefficients 


     atomic species   valence    mass     pseudopotential
        Al             3.00    26.98154     Al( 1.00)

     48 Sym. Ops., with inversion, found



   Cartesian axes

     site n.     atom                  positions (alat units)
         1           Al  tau(   1) = (   0.0000000   0.0000000   0.0000000  )

     number of k points=    84  gaussian smearing, width (Ry)=  0.0030
                       cart. coord. in units 2pi/alat
        k(    1) = (   0.0000000   0.0000000   0.0000000), wk =   0.0009103
        k(    2) = (  -0.0769231   0.0769231  -0.0769231), wk =   0.0072827
        k(    3) = (  -0.1538462   0.1538462  -0.1538462), wk =   0.0072827
        k(    4) = (  -0.2307692   0.2307692  -0.2307692), wk =   0.0072827
        k(    5) = (  -0.3076923   0.3076923  -0.3076923), wk =   0.0072827
        k(    6) = (  -0.3846154   0.3846154  -0.3846154), wk =   0.0072827
        k(    7) = (  -0.4615385   0.4615385  -0.4615385), wk =   0.0072827
        k(    8) = (   0.0000000   0.1538462   0.0000000), wk =   0.0054620
        k(    9) = (  -0.0769231   0.2307692  -0.0769231), wk =   0.0218480
        k(   10) = (  -0.1538462   0.3076923  -0.1538462), wk =   0.0218480
        k(   11) = (  -0.2307692   0.3846154  -0.2307692), wk =   0.0218480
        k(   12) = (  -0.3076923   0.4615385  -0.3076923), wk =   0.0218480
        k(   13) = (  -0.3846154   0.5384615  -0.3846154), wk =   0.0218480
        k(   14) = (   0.5384615  -0.3846154   0.5384615), wk =   0.0218480
        k(   15) = (   0.4615385  -0.3076923   0.4615385), wk =   0.0218480
        k(   16) = (   0.3846154  -0.2307692   0.3846154), wk =   0.0218480
        k(   17) = (   0.3076923  -0.1538462   0.3076923), wk =   0.0218480
        k(   18) = (   0.2307692  -0.0769231   0.2307692), wk =   0.0218480
        k(   19) = (   0.1538462   0.0000000   0.1538462), wk =   0.0109240
        k(   20) = (   0.0000000   0.3076923   0.0000000), wk =   0.0054620
        k(   21) = (  -0.0769231   0.3846154  -0.0769231), wk =   0.0218480
        k(   22) = (  -0.1538462   0.4615385  -0.1538462), wk =   0.0218480
        k(   23) = (  -0.2307692   0.5384615  -0.2307692), wk =   0.0218480
        k(   24) = (  -0.3076923   0.6153846  -0.3076923), wk =   0.0218480
        k(   25) = (   0.6153846  -0.3076923   0.6153846), wk =   0.0218480
        k(   26) = (   0.5384615  -0.2307692   0.5384615), wk =   0.0218480
        k(   27) = (   0.4615385  -0.1538462   0.4615385), wk =   0.0218480
        k(   28) = (   0.3846154  -0.0769231   0.3846154), wk =   0.0218480
        k(   29) = (   0.3076923   0.0000000   0.3076923), wk =   0.0109240
        k(   30) = (   0.0000000   0.4615385   0.0000000), wk =   0.0054620
        k(   31) = (  -0.0769231   0.5384615  -0.0769231), wk =   0.0218480
        k(   32) = (  -0.1538462   0.6153846  -0.1538462), wk =   0.0218480
        k(   33) = (  -0.2307692   0.6923077  -0.2307692), wk =   0.0218480
        k(   34) = (   0.6923077  -0.2307692   0.6923077), wk =   0.0218480
        k(   35) = (   0.6153846  -0.1538462   0.6153846), wk =   0.0218480
        k(   36) = (   0.5384615  -0.0769231   0.5384615), wk =   0.0218480
        k(   37) = (   0.4615385   0.0000000   0.4615385), wk =   0.0109240
        k(   38) = (   0.0000000   0.6153846   0.0000000), wk =   0.0054620
        k(   39) = (  -0.0769231   0.6923077  -0.0769231), wk =   0.0218480
        k(   40) = (  -0.1538462   0.7692308  -0.1538462), wk =   0.0218480
        k(   41) = (   0.7692308  -0.1538462   0.7692308), wk =   0.0218480
        k(   42) = (   0.6923077  -0.0769231   0.6923077), wk =   0.0218480
        k(   43) = (   0.6153846   0.0000000   0.6153846), wk =   0.0109240
        k(   44) = (   0.0000000   0.7692308   0.0000000), wk =   0.0054620
        k(   45) = (  -0.0769231   0.8461538  -0.0769231), wk =   0.0218480
        k(   46) = (   0.8461538  -0.0769231   0.8461538), wk =   0.0218480
        k(   47) = (   0.7692308   0.0000000   0.7692308), wk =   0.0109240
        k(   48) = (   0.0000000   0.9230769   0.0000000), wk =   0.0054620
        k(   49) = (   0.9230769   0.0000000   0.9230769), wk =   0.0109240
        k(   50) = (  -0.1538462   0.3076923   0.0000000), wk =   0.0218480
        k(   51) = (  -0.2307692   0.3846154  -0.0769231), wk =   0.0436959
        k(   52) = (  -0.3076923   0.4615385  -0.1538462), wk =   0.0436959
        k(   53) = (  -0.3846154   0.5384615  -0.2307692), wk =   0.0436959
        k(   54) = (   0.5384615  -0.3846154   0.6923077), wk =   0.0436959
        k(   55) = (  -0.1538462   0.4615385   0.0000000), wk =   0.0218480
        k(   56) = (  -0.2307692   0.5384615  -0.0769231), wk =   0.0436959
        k(   57) = (  -0.3076923   0.6153846  -0.1538462), wk =   0.0436959
        k(   58) = (   0.6153846  -0.3076923   0.7692308), wk =   0.0436959
        k(   59) = (   0.5384615  -0.2307692   0.6923077), wk =   0.0436959
        k(   60) = (   0.4615385  -0.1538462   0.6153846), wk =   0.0436959
        k(   61) = (   0.3846154  -0.0769231   0.5384615), wk =   0.0436959
        k(   62) = (   0.3076923   0.0000000   0.4615385), wk =   0.0218480
        k(   63) = (  -0.1538462   0.6153846   0.0000000), wk =   0.0218480
        k(   64) = (  -0.2307692   0.6923077  -0.0769231), wk =   0.0436959
        k(   65) = (   0.6923077  -0.2307692   0.8461538), wk =   0.0436959
        k(   66) = (   0.6153846  -0.1538462   0.7692308), wk =   0.0436959
        k(   67) = (   0.5384615  -0.0769231   0.6923077), wk =   0.0436959
        k(   68) = (   0.4615385   0.0000000   0.6153846), wk =   0.0218480
        k(   69) = (  -0.1538462   0.7692308   0.0000000), wk =   0.0218480
        k(   70) = (   0.7692308  -0.1538462   0.9230769), wk =   0.0436959
        k(   71) = (   0.6923077  -0.0769231   0.8461538), wk =   0.0436959
        k(   72) = (   0.6153846   0.0000000   0.7692308), wk =   0.0218480
        k(   73) = (   0.8461538  -0.0769231   1.0000000), wk =   0.0218480
        k(   74) = (   0.7692308   0.0000000   0.9230769), wk =   0.0218480
        k(   75) = (  -0.3076923   0.6153846   0.0000000), wk =   0.0218480
        k(   76) = (   0.6153846  -0.3076923   0.9230769), wk =   0.0436959
        k(   77) = (   0.5384615  -0.2307692   0.8461538), wk =   0.0436959
        k(   78) = (   0.6923077  -0.2307692   1.0000000), wk =   0.0218480
        k(   79) = (   0.6153846  -0.1538462   0.9230769), wk =   0.0436959
        k(   80) = (   0.5384615  -0.0769231   0.8461538), wk =   0.0436959
        k(   81) = (   0.4615385   0.0000000   0.7692308), wk =   0.0218480
        k(   82) = (   0.6923077  -0.0769231   1.0000000), wk =   0.0218480
        k(   83) = (   0.6153846   0.0000000   0.9230769), wk =   0.0218480
        k(   84) = (   0.5384615  -0.0769231   1.0000000), wk =   0.0218480

     Dense  grid:     6855 G-vectors     FFT dimensions: (  27,  27,  27)

     Largest allocated arrays     est. size (Mb)     dimensions
        Kohn-Sham Wavefunctions         0.02 Mb     (    227,    6)
        NL pseudopotentials             0.03 Mb     (    227,    8)
        Each V/rho on FFT grid          0.08 Mb     (   5103)
        Each G-vector array             0.01 Mb     (   1715)
        G-vector shells                 0.00 Mb     (    117)
     Largest temporary arrays     est. size (Mb)     dimensions
        Auxiliary wavefunctions         0.08 Mb     (    227,   24)
        Each subspace H/S matrix        0.01 Mb     (  24,  24)
        Each <psi_i|beta_j> matrix      0.00 Mb     (      8,    6)
        Arrays for rho mixing           0.62 Mb     (   5103,   8)

     Initial potential from superposition of free atoms

     starting charge    2.99771, renormalised to    3.00000
     Starting wfc are    4 randomized atomic wfcs
     Checking if some PAW data can be deallocated... 

     total cpu time spent up to now is        1.1 secs

     per-process dynamical memory:     9.0 Mb

     Self-consistent Calculation

     iteration #  1     ecut=    60.00 Ry     beta=0.70
     Davidson diagonalization with overlap
     ethr =  1.00E-02,  avg # of iterations =  4.9

     Threshold (ethr) on eigenvalues was too large:
     Diagonalizing with lowered threshold

     Davidson diagonalization with overlap
     ethr =  1.97E-04,  avg # of iterations =  2.2

     total cpu time spent up to now is        3.6 secs

     total energy              =     -39.50268835 Ry
     Harris-Foulkes estimate   =     -39.50406974 Ry
     estimated scf accuracy    <       0.00560921 Ry

     iteration #  2     ecut=    60.00 Ry     beta=0.70
     Davidson diagonalization with overlap
     ethr =  1.87E-04,  avg # of iterations =  1.0

     total cpu time spent up to now is        4.5 secs

     total energy              =     -39.50264639 Ry
     Harris-Foulkes estimate   =     -39.50275222 Ry
     estimated scf accuracy    <       0.00040907 Ry

     iteration #  3     ecut=    60.00 Ry     beta=0.70
     Davidson diagonalization with overlap
     ethr =  1.36E-05,  avg # of iterations =  1.9

     total cpu time spent up to now is        5.5 secs

     total energy              =     -39.50266590 Ry
     Harris-Foulkes estimate   =     -39.50266642 Ry
     estimated scf accuracy    <       0.00000126 Ry

     iteration #  4     ecut=    60.00 Ry     beta=0.70
     Davidson diagonalization with overlap
     ethr =  4.19E-08,  avg # of iterations =  3.3

     total cpu time spent up to now is        6.6 secs

     End of self-consistent calculation

          k = 0.0000 0.0000 0.0000 (   869 PWs)   bands (ev):

    -3.1827  20.7607  20.7607  22.3284  22.3284  22.3284

          k =-0.0769 0.0769-0.0769 (   881 PWs)   bands (ev):

    -3.0203  18.4001  20.2633  20.2633  22.9636  23.0759

          k =-0.1538 0.1538-0.1538 (   887 PWs)   bands (ev):

    -2.5342  15.2697  19.5996  19.5996  22.8192  24.2251

          k =-0.2308 0.2308-0.2308 (   872 PWs)   bands (ev):

    -1.7278  12.2502  19.1404  19.1404  22.5809  23.2942

          k =-0.3077 0.3077-0.3077 (   863 PWs)   bands (ev):

    -0.6064   9.4406  18.9355  18.9355  21.9425  21.9426

          k =-0.3846 0.3846-0.3846 (   863 PWs)   bands (ev):

     0.8227   6.8773  18.9968  18.9968  20.8072  20.8072

          k =-0.4615 0.4615-0.4615 (   868 PWs)   bands (ev):

     2.5473   4.5836  19.3286  19.3286  19.9328  19.9329

          k = 0.0000 0.1538 0.0000 (   881 PWs)   bands (ev):

    -2.9662  19.2137  19.2138  19.4777  21.8325  24.1907

          k =-0.0769 0.2308-0.0769 (   884 PWs)   bands (ev):

    -2.5882  16.3800  18.3791  19.5927  22.1534  23.4192

          k =-0.1538 0.3077-0.1538 (   871 PWs)   bands (ev):

    -1.8887  13.3449  17.8031  19.2728  21.5204  23.7239

          k =-0.2308 0.3846-0.2308 (   868 PWs)   bands (ev):

    -0.8726  10.4747  17.4956  19.0280  20.0234  24.0635

          k =-0.3077 0.4615-0.3077 (   856 PWs)   bands (ev):

     0.4535   7.8338  17.4601  18.7109  19.0741  22.8789

          k =-0.3846 0.5385-0.3846 (   859 PWs)   bands (ev):

     2.0799   5.4515  17.6986  17.7464  19.3131  21.9290

          k = 0.5385-0.3846 0.5385 (   857 PWs)   bands (ev):

     3.3099   4.0320  17.0356  18.2122  19.8563  21.2394

          k = 0.4615-0.3077 0.4615 (   864 PWs)   bands (ev):

     1.5053   6.2145  16.6056  19.0002  20.6772  20.8176

          k = 0.3846-0.2308 0.3846 (   861 PWs)   bands (ev):

    -0.0225   8.6841  16.4598  20.0499  20.6721  21.7617

          k = 0.3077-0.1538 0.3077 (   869 PWs)   bands (ev):

    -1.2461  11.4002  16.6006  20.7299  21.4073  23.0656

          k = 0.2308-0.0769 0.2308 (   869 PWs)   bands (ev):

    -2.1573  14.3120  17.0404  21.0492  22.7979  23.6180

          k = 0.1538 0.0000 0.1538 (   883 PWs)   bands (ev):

    -2.7501  17.0884  18.0091  21.1816  22.5840  23.5110

          k = 0.0000 0.3077 0.0000 (   877 PWs)   bands (ev):

    -2.3187  17.4249  17.4249  17.5668  20.7196  21.2915

          k =-0.0769 0.3846-0.0769 (   869 PWs)   bands (ev):

    -1.7278  14.6404  16.7440  18.0034  19.3946  20.9996

          k =-0.1538 0.4615-0.1538 (   863 PWs)   bands (ev):

    -0.8194  11.7672  16.3377  17.6203  18.0427  22.5629

          k =-0.2308 0.5385-0.2308 (   866 PWs)   bands (ev):

     0.4003   9.0726  16.2066  16.3039  17.9322  24.5808

          k =-0.3077 0.6154-0.3077 (   859 PWs)   bands (ev):

     1.9225   6.6164  15.2012  16.3511  18.1244  24.1896

          k = 0.6154-0.3077 0.6154 (   856 PWs)   bands (ev):

     3.7165   4.4457  14.3807  16.7719  18.6006  23.4242

          k = 0.5385-0.2308 0.5385 (   851 PWs)   bands (ev):

     2.4959   5.8499  13.8538  17.4691  19.3629  22.9169

          k = 0.4615-0.1538 0.4615 (   866 PWs)   bands (ev):

     0.8750   8.2059  13.6323  18.4413  20.4012  22.6685

          k = 0.3846-0.0769 0.3846 (   867 PWs)   bands (ev):

    -0.4469  10.7694  13.7550  19.6808  21.6914  22.6455

          k = 0.3077 0.0000 0.3077 (   859 PWs)   bands (ev):

    -1.4600  13.1546  14.5727  21.1569  22.4395  23.1745

          k = 0.0000 0.4615 0.0000 (   853 PWs)   bands (ev):

    -1.2462  15.9180  15.9636  15.9636  17.3362  19.5014

          k =-0.0769 0.5385-0.0769 (   858 PWs)   bands (ev):

    -0.4473  13.2603  15.4609  15.5410  16.6807  19.8556

          k =-0.1538 0.6154-0.1538 (   858 PWs)   bands (ev):

     0.6631  10.5682  14.0427  15.2349  16.8050  21.5781

          k =-0.2308 0.6923-0.2308 (   864 PWs)   bands (ev):

     2.0766   8.0619  12.8222  15.2854  16.9691  23.8393

          k = 0.6923-0.2308 0.6923 (   858 PWs)   bands (ev):

     3.7766   5.8042  11.8950  15.6125  17.3758  25.8652

          k = 0.6154-0.1538 0.6154 (   857 PWs)   bands (ev):

     3.7847   5.7796  11.2784  16.2166  18.0641  25.2838

          k = 0.5385-0.0769 0.5385 (   859 PWs)   bands (ev):

     2.0796   7.9680  11.0220  17.0981  19.0333  24.9431

          k = 0.4615 0.0000 0.4615 (   861 PWs)   bands (ev):

     0.6643   9.9676  11.5230  18.2552  20.2621  24.5173

          k = 0.0000 0.6154 0.0000 (   861 PWs)   bands (ev):

     0.2408  13.6367  14.6537  14.8632  14.8632  18.4493

          k =-0.0769 0.6923-0.0769 (   853 PWs)   bands (ev):

     1.2395  11.9454  12.3407  14.5432  15.6682  18.9669

          k =-0.1538 0.7692-0.1538 (   859 PWs)   bands (ev):

     2.5393   9.7318  10.7275  14.4999  15.9934  20.8818

          k = 0.7692-0.1538 0.7692 (   859 PWs)   bands (ev):

     4.1211   7.4431   9.6826  14.7332  16.3659  23.3522

          k = 0.6923-0.0769 0.6923 (   855 PWs)   bands (ev):

     5.3434   5.9773   9.0095  15.2436  16.9826  26.0288

          k = 0.6154 0.0000 0.6154 (   865 PWs)   bands (ev):

     3.5816   7.5774   9.1108  16.0317  17.8758  27.6106

          k = 0.0000 0.7692 0.0000 (   858 PWs)   bands (ev):

     2.1232  10.2662  13.8032  14.1296  14.1296  17.6944

          k =-0.0769 0.8462-0.0769 (   853 PWs)   bands (ev):

     3.3001   8.8230  11.6891  13.9929  15.0592  18.4085

          k = 0.8462-0.0769 0.8462 (   859 PWs)   bands (ev):

     4.7238   7.7150   9.4149  14.1327  15.5811  20.5234

          k = 0.7692 0.0000 0.7692 (   858 PWs)   bands (ev):

     5.9877   7.0358   7.6494  14.5493  16.1615  23.1848

          k = 0.0000 0.9231 0.0000 (   850 PWs)   bands (ev):

     4.3183   7.3244  13.3763  13.7630  13.7630  17.3026

          k = 0.9231 0.0000 0.9231 (   858 PWs)   bands (ev):

     5.1944   6.5579  11.4874  13.8096  14.8555  18.2185

          k =-0.1538 0.3077 0.0000 (   871 PWs)   bands (ev):

    -2.1036  15.1373  16.2916  20.1634  21.3570  22.1117

          k =-0.2308 0.3846-0.0769 (   865 PWs)   bands (ev):

    -1.2996  12.5482  15.4085  19.7042  20.3236  23.2049

          k =-0.3077 0.4615-0.1538 (   865 PWs)   bands (ev):

    -0.1816   9.8084  15.1251  18.2491  20.2489  23.3891

          k =-0.3846 0.5385-0.2308 (   861 PWs)   bands (ev):

     1.2428   7.2708  15.1577  17.0648  20.3550  22.2728

          k = 0.5385-0.3846 0.6923 (   858 PWs)   bands (ev):

     2.9605   4.9912  15.4624  16.1841  20.6985  21.3981

          k =-0.1538 0.4615 0.0000 (   862 PWs)   bands (ev):

    -1.0326  13.5553  14.8085  17.5574  18.7020  20.8895

          k =-0.2308 0.5385-0.0769 (   856 PWs)   bands (ev):

    -0.0229  11.1576  14.0649  15.9862  19.0985  22.1850

          k =-0.3077 0.6154-0.1538 (   858 PWs)   bands (ev):

     1.2943   8.6020  13.9165  14.7247  19.2392  24.1081

          k = 0.6154-0.3077 0.7692 (   858 PWs)   bands (ev):

     2.9079   6.2550  13.5377  14.3088  19.5503  23.6862

          k = 0.5385-0.2308 0.6923 (   858 PWs)   bands (ev):

     4.1249   4.8500  12.8623  14.7854  20.1129  22.9952

          k = 0.4615-0.1538 0.6154 (   856 PWs)   bands (ev):

     2.3395   6.9932  12.4552  15.5946  20.9338  22.5442

          k = 0.3846-0.0769 0.5385 (   861 PWs)   bands (ev):

     0.8221   9.3710  12.3953  16.6952  21.9394  22.3448

          k = 0.3077 0.0000 0.4615 (   857 PWs)   bands (ev):

    -0.3939  11.5625  13.0612  18.0724  21.7786  22.9968

          k =-0.1538 0.6154 0.0000 (   854 PWs)   bands (ev):

     0.4521  12.3616  13.4924  14.0600  17.5470  19.8915

          k =-0.2308 0.6923-0.0769 (   859 PWs)   bands (ev):

     1.6587  10.1519  12.3482  13.2337  18.1515  21.3612

          k = 0.6923-0.2308 0.8462 (   858 PWs)   bands (ev):

     3.1610   7.7900  11.2778  13.2630  18.4956  23.6422

          k = 0.6154-0.1538 0.7692 (   858 PWs)   bands (ev):

     4.9166   5.6641  10.4695  13.6721  19.0066  25.3791

          k = 0.5385-0.0769 0.6923 (   862 PWs)   bands (ev):

     3.7341   6.9622  10.0134  14.3910  19.7670  24.9312

          k = 0.4615 0.0000 0.6154 (   863 PWs)   bands (ev):

     2.1312   8.7720  10.3213  15.4027  20.7811  24.1751

          k =-0.1538 0.7692 0.0000 (   858 PWs)   bands (ev):

     2.3314  10.4494  11.5633  12.9753  16.7667  19.1781

          k = 0.7692-0.1538 0.9231 (   863 PWs)   bands (ev):

     3.7118   9.1425   9.6574  12.5838  17.5700  20.8397

          k = 0.6923-0.0769 0.8462 (   857 PWs)   bands (ev):

     5.3280   7.3431   8.4274  12.8580  18.1131  23.3280

          k = 0.6154 0.0000 0.7692 (   857 PWs)   bands (ev):

     5.4086   6.7821   8.2904  13.4736  18.8199  26.0103

          k = 0.8462-0.0769 1.0000 (   857 PWs)   bands (ev):

     4.5213   7.5262  11.1635  12.5783  16.3749  18.8089

          k = 0.7692 0.0000 0.9231 (   857 PWs)   bands (ev):

     5.5909   6.9649   9.3885  12.3829  17.3746  20.6619

          k =-0.3077 0.6154 0.0000 (   863 PWs)   bands (ev):

     1.0842  10.3667  11.8685  14.4972  20.7045  22.4652

          k = 0.6154-0.3077 0.9231 (   858 PWs)   bands (ev):

     2.4932   8.3661  11.3745  13.2926  21.3999  23.3263

          k = 0.5385-0.2308 0.8462 (   861 PWs)   bands (ev):

     4.1873   6.1846  11.5630  12.4387  21.8274  22.6230

          k = 0.6923-0.2308 1.0000 (   867 PWs)   bands (ev):

     2.9542   9.5692  10.7297  11.5051  19.9446  21.8627

          k = 0.6154-0.1538 0.9231 (   867 PWs)   bands (ev):

     4.5305   7.7551   9.9552  10.9836  20.8582  23.7154

          k = 0.5385-0.0769 0.8462 (   863 PWs)   bands (ev):

     5.7280   6.3766   9.3700  11.3637  21.5255  24.4554

          k = 0.4615 0.0000 0.7692 (   858 PWs)   bands (ev):

     3.9854   7.9755   9.4824  12.1658  22.3410  23.4808

          k = 0.6923-0.0769 1.0000 (   865 PWs)   bands (ev):

     5.1287   8.1135   9.1705  10.8048  19.5588  21.5349

          k = 0.6154 0.0000 0.9231 (   865 PWs)   bands (ev):

     6.3847   7.4135   7.9548  10.6993  20.6724  23.6098

          k = 0.5385-0.0769 1.0000 (   867 PWs)   bands (ev):

     6.1330   7.5774   8.7256   9.6339  23.1113  23.9918

     the Fermi energy is     7.9751 ev

!    total energy              =     -39.50266713 Ry
     Harris-Foulkes estimate   =     -39.50266718 Ry
     estimated scf accuracy    <       0.00000009 Ry

     total all-electron energy =      -485.645449 Ry

     The total energy is the sum of the following terms:

     one-electron contribution =       3.19720044 Ry
     hartree contribution      =       0.00587906 Ry
     xc contribution           =      -3.03791786 Ry
     ewald contribution        =      -5.42944193 Ry
     one-center paw contrib.   =     -34.23833580 Ry
     smearing contrib. (-TS)   =      -0.00005104 Ry

     convergence has been achieved in   4 iterations

     Writing output data file Al.save

     init_run     :      0.65s CPU      0.68s WALL (       1 calls)
     electrons    :      5.31s CPU      5.52s WALL (       1 calls)

     Called by init_run:
     wfcinit      :      0.32s CPU      0.33s WALL (       1 calls)
     potinit      :      0.07s CPU      0.07s WALL (       1 calls)

     Called by electrons:
     c_bands      :      4.28s CPU      4.45s WALL (       5 calls)
     sum_band     :      0.76s CPU      0.78s WALL (       5 calls)
     v_of_rho     :      0.04s CPU      0.04s WALL (       5 calls)
     newd         :      0.02s CPU      0.02s WALL (       5 calls)
     mix_rho      :      0.02s CPU      0.02s WALL (       5 calls)

     Called by c_bands:
     init_us_2    :      0.16s CPU      0.13s WALL (     924 calls)
     cegterg      :      4.13s CPU      4.31s WALL (     420 calls)

     Called by *egterg:
     h_psi        :      3.73s CPU      3.87s WALL (    1618 calls)
     s_psi        :      0.03s CPU      0.04s WALL (    1618 calls)
     g_psi        :      0.03s CPU      0.03s WALL (    1114 calls)
     cdiaghg      :      0.33s CPU      0.32s WALL (    1450 calls)

     Called by h_psi:
     add_vuspsi   :      0.04s CPU      0.04s WALL (    1618 calls)

     General routines
     calbec       :      0.09s CPU      0.09s WALL (    2038 calls)
     fft          :      0.03s CPU      0.03s WALL (      67 calls)
     fftw         :      4.07s CPU      4.02s WALL (   16962 calls)
     davcio       :      0.02s CPU      0.03s WALL (    1344 calls)

     Parallel routines
     fft_scatter  :      0.66s CPU      0.82s WALL (   17029 calls)

     PAW routines
     PAW_pot      :      0.25s CPU      0.26s WALL (       5 calls)
     PAW_ddot     :      0.02s CPU      0.02s WALL (      12 calls)
     PAW_symme    :      0.00s CPU      0.00s WALL (      10 calls)

     PWSCF        :     6.70s CPU         6.96s WALL


   This run was terminated on:   1:32:49  12Jul2015            

=------------------------------------------------------------------------------=
   JOB DONE.
=------------------------------------------------------------------------------=
